<?xml version="1.0" encoding="ISO-8859-1"?>
<modeling>
 <generator>
  <i name="program" type="string">vasp </i>
  <i name="version" type="string">5.4.1  </i>
  <i name="subversion" type="string">05Feb16 (build Aug 09 2016 09:44:09) complex                          parallel </i>
  <i name="platform" type="string">Abel-impi-ifc-cuda </i>
  <i name="date" type="string">2017 03 14 </i>
  <i name="time" type="string">10:03:21 </i>
 </generator>
 <incar>
  <i type="string" name="PREC">accurate  ! normal/accurate</i>
  <i type="string" name="ALGO"> Fast      ! Algorithm for electronic re</i>
  <i type="int" name="ISPIN">     1</i>
  <i type="int" name="NELM">   300</i>
  <i type="int" name="NELMIN">     4</i>
  <i name="EDIFF">      0.00000100</i>
  <i type="int" name="NSW">     0</i>
  <i name="ENCUT">    500.00000000</i>
  <i type="int" name="NEDOS">  2101</i>
  <i type="logical" name="LREAL"> F  </i>
  <i name="EMIN">     -9.00000000</i>
  <i name="EMAX">     12.00000000</i>
  <i type="int" name="ISMEAR">     0</i>
  <i name="SIGMA">      0.01000000</i>
  <i type="logical" name="LWAVE"> F  </i>
  <i type="logical" name="LCHARG"> F  </i>
  <v type="int" name="KPOINT_BSE">    -1     0     0     0</v>
  <i type="int" name="NELM">   300</i>
  <i type="logical" name="LEPSILON"> T  </i>
 </incar>
 <kpoints>
  <generation param="Gamma">
   <v type="int" name="divisions">       9        6       13 </v>
   <v name="usershift">      0.00000000       0.00000000       0.00000000 </v>
   <v name="genvec1">      0.11111111      -0.00000000      -0.00000000 </v>
   <v name="genvec2">     -0.00000000       0.16666667      -0.00000000 </v>
   <v name="genvec3">      0.00000000       0.00000000       0.07692308 </v>
   <v name="shift">      0.00000000       0.00000000       0.00000000 </v>
  </generation>
  <varray name="kpointlist" >
   <v>       0.00000000       0.00000000       0.00000000 </v>
   <v>       0.11111111      -0.00000000       0.00000000 </v>
   <v>       0.22222222      -0.00000000       0.00000000 </v>
   <v>       0.33333333       0.00000000       0.00000000 </v>
   <v>       0.44444444      -0.00000000       0.00000000 </v>
   <v>       0.00000000       0.16666667       0.00000000 </v>
   <v>       0.11111111       0.16666667       0.00000000 </v>
   <v>       0.22222222       0.16666667       0.00000000 </v>
   <v>       0.33333333       0.16666667       0.00000000 </v>
   <v>       0.44444444       0.16666667       0.00000000 </v>
   <v>      -0.00000000       0.33333333      -0.00000000 </v>
   <v>       0.11111111       0.33333333      -0.00000000 </v>
   <v>       0.22222222       0.33333333       0.00000000 </v>
   <v>       0.33333333       0.33333333       0.00000000 </v>
   <v>       0.44444444       0.33333333       0.00000000 </v>
   <v>      -0.00000000       0.50000000      -0.00000000 </v>
   <v>       0.11111111       0.50000000      -0.00000000 </v>
   <v>       0.22222222       0.50000000      -0.00000000 </v>
   <v>       0.33333333       0.50000000       0.00000000 </v>
   <v>       0.44444444       0.50000000       0.00000000 </v>
   <v>      -0.00000000       0.00000000       0.07692308 </v>
   <v>       0.11111111       0.00000000       0.07692308 </v>
   <v>       0.22222222      -0.00000000       0.07692308 </v>
   <v>       0.33333333       0.00000000       0.07692308 </v>
   <v>       0.44444444      -0.00000000       0.07692308 </v>
   <v>      -0.00000000       0.16666667       0.07692308 </v>
   <v>       0.11111111       0.16666667       0.07692308 </v>
   <v>       0.22222222       0.16666667       0.07692308 </v>
   <v>       0.33333333       0.16666667       0.07692308 </v>
   <v>       0.44444444       0.16666667       0.07692308 </v>
   <v>      -0.00000000       0.33333333       0.07692308 </v>
   <v>       0.11111111       0.33333333       0.07692308 </v>
   <v>       0.22222222       0.33333333       0.07692308 </v>
   <v>       0.33333333       0.33333333       0.07692308 </v>
   <v>       0.44444444       0.33333333       0.07692308 </v>
   <v>       0.00000000       0.50000000       0.07692308 </v>
   <v>       0.11111111       0.50000000       0.07692308 </v>
   <v>       0.22222222       0.50000000       0.07692308 </v>
   <v>       0.33333333       0.50000000       0.07692308 </v>
   <v>       0.44444444       0.50000000       0.07692308 </v>
   <v>      -0.00000000       0.00000000       0.15384615 </v>
   <v>       0.11111111       0.00000000       0.15384615 </v>
   <v>       0.22222222      -0.00000000       0.15384615 </v>
   <v>       0.33333333       0.00000000       0.15384615 </v>
   <v>       0.44444444       0.00000000       0.15384615 </v>
   <v>      -0.00000000       0.16666667       0.15384615 </v>
   <v>       0.11111111       0.16666667       0.15384615 </v>
   <v>       0.22222222       0.16666667       0.15384615 </v>
   <v>       0.33333333       0.16666667       0.15384615 </v>
   <v>       0.44444444       0.16666667       0.15384615 </v>
   <v>      -0.00000000       0.33333333       0.15384615 </v>
   <v>       0.11111111       0.33333333       0.15384615 </v>
   <v>       0.22222222       0.33333333       0.15384615 </v>
   <v>       0.33333333       0.33333333       0.15384615 </v>
   <v>       0.44444444       0.33333333       0.15384615 </v>
   <v>       0.00000000       0.50000000       0.15384615 </v>
   <v>       0.11111111       0.50000000       0.15384615 </v>
   <v>       0.22222222       0.50000000       0.15384615 </v>
   <v>       0.33333333       0.50000000       0.15384615 </v>
   <v>       0.44444444       0.50000000       0.15384615 </v>
   <v>      -0.00000000       0.00000000       0.23076923 </v>
   <v>       0.11111111       0.00000000       0.23076923 </v>
   <v>       0.22222222       0.00000000       0.23076923 </v>
   <v>       0.33333333       0.00000000       0.23076923 </v>
   <v>       0.44444444      -0.00000000       0.23076923 </v>
   <v>      -0.00000000       0.16666667       0.23076923 </v>
   <v>       0.11111111       0.16666667       0.23076923 </v>
   <v>       0.22222222       0.16666667       0.23076923 </v>
   <v>       0.33333333       0.16666667       0.23076923 </v>
   <v>       0.44444444       0.16666667       0.23076923 </v>
   <v>      -0.00000000       0.33333333       0.23076923 </v>
   <v>       0.11111111       0.33333333       0.23076923 </v>
   <v>       0.22222222       0.33333333       0.23076923 </v>
   <v>       0.33333333       0.33333333       0.23076923 </v>
   <v>       0.44444444       0.33333333       0.23076923 </v>
   <v>      -0.00000000       0.50000000       0.23076923 </v>
   <v>       0.11111111       0.50000000       0.23076923 </v>
   <v>       0.22222222       0.50000000       0.23076923 </v>
   <v>       0.33333333       0.50000000       0.23076923 </v>
   <v>       0.44444444       0.50000000       0.23076923 </v>
   <v>       0.00000000       0.00000000       0.30769231 </v>
   <v>       0.11111111       0.00000000       0.30769231 </v>
   <v>       0.22222222       0.00000000       0.30769231 </v>
   <v>       0.33333333       0.00000000       0.30769231 </v>
   <v>       0.44444444       0.00000000       0.30769231 </v>
   <v>       0.00000000       0.16666667       0.30769231 </v>
   <v>       0.11111111       0.16666667       0.30769231 </v>
   <v>       0.22222222       0.16666667       0.30769231 </v>
   <v>       0.33333333       0.16666667       0.30769231 </v>
   <v>       0.44444444       0.16666667       0.30769231 </v>
   <v>      -0.00000000       0.33333333       0.30769231 </v>
   <v>       0.11111111       0.33333333       0.30769231 </v>
   <v>       0.22222222       0.33333333       0.30769231 </v>
   <v>       0.33333333       0.33333333       0.30769231 </v>
   <v>       0.44444444       0.33333333       0.30769231 </v>
   <v>       0.00000000       0.50000000       0.30769231 </v>
   <v>       0.11111111       0.50000000       0.30769231 </v>
   <v>       0.22222222       0.50000000       0.30769231 </v>
   <v>       0.33333333       0.50000000       0.30769231 </v>
   <v>       0.44444444       0.50000000       0.30769231 </v>
   <v>       0.00000000       0.00000000       0.38461538 </v>
   <v>       0.11111111       0.00000000       0.38461538 </v>
   <v>       0.22222222       0.00000000       0.38461538 </v>
   <v>       0.33333333       0.00000000       0.38461538 </v>
   <v>       0.44444444      -0.00000000       0.38461538 </v>
   <v>       0.00000000       0.16666667       0.38461538 </v>
   <v>       0.11111111       0.16666667       0.38461538 </v>
   <v>       0.22222222       0.16666667       0.38461538 </v>
   <v>       0.33333333       0.16666667       0.38461538 </v>
   <v>       0.44444444       0.16666667       0.38461538 </v>
   <v>       0.00000000       0.33333333       0.38461538 </v>
   <v>       0.11111111       0.33333333       0.38461538 </v>
   <v>       0.22222222       0.33333333       0.38461538 </v>
   <v>       0.33333333       0.33333333       0.38461538 </v>
   <v>       0.44444444       0.33333333       0.38461538 </v>
   <v>       0.00000000       0.50000000       0.38461538 </v>
   <v>       0.11111111       0.50000000       0.38461538 </v>
   <v>       0.22222222       0.50000000       0.38461538 </v>
   <v>       0.33333333       0.50000000       0.38461538 </v>
   <v>       0.44444444       0.50000000       0.38461538 </v>
   <v>      -0.00000000       0.00000000       0.46153846 </v>
   <v>       0.11111111       0.00000000       0.46153846 </v>
   <v>       0.22222222       0.00000000       0.46153846 </v>
   <v>       0.33333333       0.00000000       0.46153846 </v>
   <v>       0.44444444       0.00000000       0.46153846 </v>
   <v>      -0.00000000       0.16666667       0.46153846 </v>
   <v>       0.11111111       0.16666667       0.46153846 </v>
   <v>       0.22222222       0.16666667       0.46153846 </v>
   <v>       0.33333333       0.16666667       0.46153846 </v>
   <v>       0.44444444       0.16666667       0.46153846 </v>
   <v>      -0.00000000       0.33333333       0.46153846 </v>
   <v>       0.11111111       0.33333333       0.46153846 </v>
   <v>       0.22222222       0.33333333       0.46153846 </v>
   <v>       0.33333333       0.33333333       0.46153846 </v>
   <v>       0.44444444       0.33333333       0.46153846 </v>
   <v>      -0.00000000       0.50000000       0.46153846 </v>
   <v>       0.11111111       0.50000000       0.46153846 </v>
   <v>       0.22222222       0.50000000       0.46153846 </v>
   <v>       0.33333333       0.50000000       0.46153846 </v>
   <v>       0.44444444       0.50000000       0.46153846 </v>
  </varray>
  <varray name="weights" >
   <v>       0.00142450 </v>
   <v>       0.00284900 </v>
   <v>       0.00284900 </v>
   <v>       0.00284900 </v>
   <v>       0.00284900 </v>
   <v>       0.00284900 </v>
   <v>       0.00569801 </v>
   <v>       0.00569801 </v>
   <v>       0.00569801 </v>
   <v>       0.00569801 </v>
   <v>       0.00284900 </v>
   <v>       0.00569801 </v>
   <v>       0.00569801 </v>
   <v>       0.00569801 </v>
   <v>       0.00569801 </v>
   <v>       0.00142450 </v>
   <v>       0.00284900 </v>
   <v>       0.00284900 </v>
   <v>       0.00284900 </v>
   <v>       0.00284900 </v>
   <v>       0.00284900 </v>
   <v>       0.00569801 </v>
   <v>       0.00569801 </v>
   <v>       0.00569801 </v>
   <v>       0.00569801 </v>
   <v>       0.00569801 </v>
   <v>       0.01139601 </v>
   <v>       0.01139601 </v>
   <v>       0.01139601 </v>
   <v>       0.01139601 </v>
   <v>       0.00569801 </v>
   <v>       0.01139601 </v>
   <v>       0.01139601 </v>
   <v>       0.01139601 </v>
   <v>       0.01139601 </v>
   <v>       0.00284900 </v>
   <v>       0.00569801 </v>
   <v>       0.00569801 </v>
   <v>       0.00569801 </v>
   <v>       0.00569801 </v>
   <v>       0.00284900 </v>
   <v>       0.00569801 </v>
   <v>       0.00569801 </v>
   <v>       0.00569801 </v>
   <v>       0.00569801 </v>
   <v>       0.00569801 </v>
   <v>       0.01139601 </v>
   <v>       0.01139601 </v>
   <v>       0.01139601 </v>
   <v>       0.01139601 </v>
   <v>       0.00569801 </v>
   <v>       0.01139601 </v>
   <v>       0.01139601 </v>
   <v>       0.01139601 </v>
   <v>       0.01139601 </v>
   <v>       0.00284900 </v>
   <v>       0.00569801 </v>
   <v>       0.00569801 </v>
   <v>       0.00569801 </v>
   <v>       0.00569801 </v>
   <v>       0.00284900 </v>
   <v>       0.00569801 </v>
   <v>       0.00569801 </v>
   <v>       0.00569801 </v>
   <v>       0.00569801 </v>
   <v>       0.00569801 </v>
   <v>       0.01139601 </v>
   <v>       0.01139601 </v>
   <v>       0.01139601 </v>
   <v>       0.01139601 </v>
   <v>       0.00569801 </v>
   <v>       0.01139601 </v>
   <v>       0.01139601 </v>
   <v>       0.01139601 </v>
   <v>       0.01139601 </v>
   <v>       0.00284900 </v>
   <v>       0.00569801 </v>
   <v>       0.00569801 </v>
   <v>       0.00569801 </v>
   <v>       0.00569801 </v>
   <v>       0.00284900 </v>
   <v>       0.00569801 </v>
   <v>       0.00569801 </v>
   <v>       0.00569801 </v>
   <v>       0.00569801 </v>
   <v>       0.00569801 </v>
   <v>       0.01139601 </v>
   <v>       0.01139601 </v>
   <v>       0.01139601 </v>
   <v>       0.01139601 </v>
   <v>       0.00569801 </v>
   <v>       0.01139601 </v>
   <v>       0.01139601 </v>
   <v>       0.01139601 </v>
   <v>       0.01139601 </v>
   <v>       0.00284900 </v>
   <v>       0.00569801 </v>
   <v>       0.00569801 </v>
   <v>       0.00569801 </v>
   <v>       0.00569801 </v>
   <v>       0.00284900 </v>
   <v>       0.00569801 </v>
   <v>       0.00569801 </v>
   <v>       0.00569801 </v>
   <v>       0.00569801 </v>
   <v>       0.00569801 </v>
   <v>       0.01139601 </v>
   <v>       0.01139601 </v>
   <v>       0.01139601 </v>
   <v>       0.01139601 </v>
   <v>       0.00569801 </v>
   <v>       0.01139601 </v>
   <v>       0.01139601 </v>
   <v>       0.01139601 </v>
   <v>       0.01139601 </v>
   <v>       0.00284900 </v>
   <v>       0.00569801 </v>
   <v>       0.00569801 </v>
   <v>       0.00569801 </v>
   <v>       0.00569801 </v>
   <v>       0.00284900 </v>
   <v>       0.00569801 </v>
   <v>       0.00569801 </v>
   <v>       0.00569801 </v>
   <v>       0.00569801 </v>
   <v>       0.00569801 </v>
   <v>       0.01139601 </v>
   <v>       0.01139601 </v>
   <v>       0.01139601 </v>
   <v>       0.01139601 </v>
   <v>       0.00569801 </v>
   <v>       0.01139601 </v>
   <v>       0.01139601 </v>
   <v>       0.01139601 </v>
   <v>       0.01139601 </v>
   <v>       0.00284900 </v>
   <v>       0.00569801 </v>
   <v>       0.00569801 </v>
   <v>       0.00569801 </v>
   <v>       0.00569801 </v>
  </varray>
 </kpoints>
 <parameters>
  <separator name="general" >
   <i type="string" name="SYSTEM">unknown system</i>
   <i type="logical" name="LCOMPAT"> F  </i>
  </separator>
  <separator name="electronic" >
   <i type="string" name="PREC">accura</i>
   <i name="ENMAX">    500.00000000</i>
   <i name="ENAUG">    580.19600000</i>
   <i name="EDIFF">      0.00000100</i>
   <i type="int" name="IALGO">    68</i>
   <i type="int" name="IWAVPR">    10</i>
   <i type="int" name="NBANDS">    64</i>
   <i name="NELECT">    104.00000000</i>
   <i type="int" name="TURBO">     0</i>
   <i type="int" name="IRESTART">     0</i>
   <i type="int" name="NREBOOT">     0</i>
   <i type="int" name="NMIN">     0</i>
   <i name="EREF">      0.00000000</i>
   <separator name="electronic smearing" >
    <i type="int" name="ISMEAR">     0</i>
    <i name="SIGMA">      0.01000000</i>
    <i name="KSPACING">      0.50000000</i>
    <i type="logical" name="KGAMMA"> T  </i>
   </separator>
   <separator name="electronic projectors" >
    <i type="logical" name="LREAL"> F  </i>
    <v name="ROPT">      0.00000000      0.00000000</v>
    <i type="int" name="LMAXPAW">  -100</i>
    <i type="int" name="LMAXMIX">     2</i>
    <i type="logical" name="NLSPLINE"> F  </i>
   </separator>
   <separator name="electronic startup" >
    <i type="int" name="ISTART">     0</i>
    <i type="int" name="ICHARG">     2</i>
    <i type="int" name="INIWAV">     1</i>
   </separator>
   <separator name="electronic spin" >
    <i type="int" name="ISPIN">     1</i>
    <i type="logical" name="LNONCOLLINEAR"> F  </i>
    <v name="MAGMOM">      1.00000000      1.00000000      1.00000000      1.00000000      1.00000000      1.00000000      1.00000000      1.00000000      1.00000000      1.00000000      1.00000000      1.00000000      1.00000000      1.00000000      1.00000000      1.00000000      1.00000000      1.00000000</v>
    <i name="NUPDOWN">     -1.00000000</i>
    <i type="logical" name="LSORBIT"> F  </i>
    <v name="SAXIS">      0.00000000      0.00000000      1.00000000</v>
    <i type="logical" name="LSPIRAL"> F  </i>
    <v name="QSPIRAL">      0.00000000      0.00000000      0.00000000</v>
    <i type="logical" name="LZEROZ"> F  </i>
   </separator>
   <separator name="electronic exchange-correlation" >
    <i type="logical" name="LASPH"> F  </i>
    <i type="logical" name="LMETAGGA"> F  </i>
   </separator>
   <separator name="electronic convergence" >
    <i type="int" name="NELM">   300</i>
    <i type="int" name="NELMDL">    -5</i>
    <i type="int" name="NELMIN">     4</i>
    <i name="ENINI">    500.00000000</i>
    <separator name="electronic convergence detail" >
     <i type="logical" name="LDIAG"> T  </i>
     <i type="logical" name="LSUBROT"> F  </i>
     <i name="WEIMIN">      0.00000000</i>
     <i name="EBREAK">      0.00000000</i>
     <i name="DEPER">      0.30000000</i>
     <i type="int" name="NRMM">     4</i>
     <i name="TIME">      0.40000000</i>
    </separator>
   </separator>
   <separator name="electronic mixer" >
    <i name="AMIX">      0.40000000</i>
    <i name="BMIX">      1.00000000</i>
    <i name="AMIN">      0.10000000</i>
    <i name="AMIX_MAG">      1.60000000</i>
    <i name="BMIX_MAG">      1.00000000</i>
    <separator name="electronic mixer details" >
     <i type="int" name="IMIX">     4</i>
     <i type="logical" name="MIXFIRST"> F  </i>
     <i type="int" name="MAXMIX">   -45</i>
     <i name="WC">    100.00000000</i>
     <i type="int" name="INIMIX">     1</i>
     <i type="int" name="MIXPRE">     1</i>
     <i type="int" name="MREMOVE">     5</i>
    </separator>
   </separator>
   <separator name="electronic dipolcorrection" >
    <i type="logical" name="LDIPOL"> F  </i>
    <i type="logical" name="LMONO"> F  </i>
    <i type="int" name="IDIPOL">     0</i>
    <i name="EPSILON">      1.00000000</i>
    <v name="DIPOL">   -100.00000000   -100.00000000   -100.00000000</v>
    <i name="EFIELD">      0.00000000</i>
   </separator>
  </separator>
  <separator name="grids" >
   <i type="int" name="NGX">    54</i>
   <i type="int" name="NGY">    80</i>
   <i type="int" name="NGZ">    36</i>
   <i type="int" name="NGXF">   108</i>
   <i type="int" name="NGYF">   160</i>
   <i type="int" name="NGZF">    72</i>
   <i type="logical" name="ADDGRID"> F  </i>
  </separator>
  <separator name="ionic" >
   <i type="int" name="NSW">     0</i>
   <i type="int" name="IBRION">    -1</i>
   <i type="int" name="ISIF">     2</i>
   <i name="PSTRESS">      0.00000000</i>
   <i name="EDIFFG">      0.00001000</i>
   <i type="int" name="NFREE">     0</i>
   <i name="POTIM">      0.50000000</i>
   <i name="SMASS">     -3.00000000</i>
   <i name="SCALEE">      1.00000000</i>
  </separator>
  <separator name="ionic md" >
   <i name="TEBEG">      0.00010000</i>
   <i name="TEEND">      0.00010000</i>
   <i type="int" name="NBLOCK">     1</i>
   <i type="int" name="KBLOCK">     1</i>
   <i type="int" name="NPACO">   256</i>
   <i name="APACO">     16.00000000</i>
  </separator>
  <separator name="symmetry" >
   <i type="int" name="ISYM">     2</i>
   <i name="SYMPREC">      0.00001000</i>
  </separator>
  <separator name="dos" >
   <i type="logical" name="LORBIT"> F  </i>
   <v name="RWIGS">     -1.00000000     -1.00000000</v>
   <i type="int" name="NEDOS">  2101</i>
   <i name="EMIN">     -9.00000000</i>
   <i name="EMAX">     12.00000000</i>
   <i name="EFERMI">      0.00000000</i>
  </separator>
  <separator name="writing" >
   <i type="int" name="NWRITE">     2</i>
   <i type="logical" name="LWAVE"> F  </i>
   <i type="logical" name="LCHARG"> F  </i>
   <i type="logical" name="LPARD"> F  </i>
   <i type="logical" name="LVTOT"> F  </i>
   <i type="logical" name="LVHAR"> F  </i>
   <i type="logical" name="LELF"> F  </i>
   <i type="logical" name="LOPTICS"> F  </i>
   <v name="STM">      0.00000000      0.00000000      0.00000000      0.00000000      0.00000000      0.00000000      0.00000000</v>
  </separator>
  <separator name="performance" >
   <i type="int" name="NPAR">    16</i>
   <i type="int" name="NSIM">     4</i>
   <i type="int" name="NBLK">    -1</i>
   <i type="logical" name="LPLANE"> T  </i>
   <i type="logical" name="LSCALAPACK"> F  </i>
   <i type="logical" name="LSCAAWARE"> F  </i>
   <i type="logical" name="LSCALU"> F  </i>
   <i type="logical" name="LASYNC"> F  </i>
   <i type="logical" name="LORBITALREAL"> F  </i>
  </separator>
  <separator name="miscellaneous" >
   <i type="int" name="IDIOT">     3</i>
   <i type="logical" name="LMUSIC"> F  </i>
   <v name="POMASS">    140.11500000     28.08500000</v>
   <v name="DARWINR">      0.00000000      0.00000000</v>
   <v name="DARWINV">      1.00000000      1.00000000</v>
   <i type="logical" name="LCORR"> T  </i>
  </separator>
  <i type="logical" name="GGA_COMPAT"> T  </i>
  <i type="logical" name="LBERRY"> F  </i>
  <i type="int" name="ICORELEVEL">     0</i>
  <i type="logical" name="LDAU"> F  </i>
  <i type="int" name="I_CONSTRAINED_M">     0</i>
  <separator name="electronic exchange-correlation" >
   <i type="string" name="GGA">--</i>
   <i type="int" name="VOSKOWN">     0</i>
   <i type="logical" name="LHFCALC"> F  </i>
   <i type="string" name="PRECFOCK"></i>
   <i type="logical" name="LSYMGRAD"> F  </i>
   <i type="logical" name="LHFONE"> F  </i>
   <i type="logical" name="LRHFCALC"> F  </i>
   <i type="logical" name="LTHOMAS"> F  </i>
   <i type="logical" name="LMODELHF"> F  </i>
   <i name="ENCUT4O">     -1.00000000</i>
   <i type="int" name="EXXOEP">     0</i>
   <i type="int" name="FOURORBIT">     0</i>
   <i name="AEXX">      0.00000000</i>
   <i name="HFALPHA">      0.00000000</i>
   <i name="MCALPHA">      0.00000000</i>
   <i name="ALDAX">      1.00000000</i>
   <i name="AGGAX">      1.00000000</i>
   <i name="ALDAC">      1.00000000</i>
   <i name="AGGAC">      1.00000000</i>
   <i type="int" name="NKREDX">     1</i>
   <i type="int" name="NKREDY">     1</i>
   <i type="int" name="NKREDZ">     1</i>
   <i type="logical" name="SHIFTRED"> F  </i>
   <i type="logical" name="ODDONLY"> F  </i>
   <i type="logical" name="EVENONLY"> F  </i>
   <i type="int" name="LMAXFOCK">     0</i>
   <i type="int" name="NMAXFOCKAE">     0</i>
   <i type="logical" name="LFOCKAEDFT"> F  </i>
   <i name="HFSCREEN">      0.00000000</i>
   <i name="HFSCREENC">      0.00000000</i>
   <i type="int" name="NBANDSGWLOW">     0</i>
  </separator>
  <separator name="vdW DFT" >
   <i type="logical" name="LUSE_VDW"> F  </i>
   <i name="Zab_VDW">     -0.84910000</i>
   <i name="PARAM1">      0.12340000</i>
   <i name="PARAM2">      1.00000000</i>
   <i name="PARAM3">      0.00000000</i>
  </separator>
  <separator name="model GW" >
   <i type="int" name="MODEL_GW">     0</i>
   <i name="MODEL_EPS0">     10.43221782</i>
   <i name="MODEL_ALPHA">      1.00000000</i>
  </separator>
  <separator name="linear response parameters" >
   <i type="logical" name="LEPSILON"> T  </i>
   <i type="logical" name="LRPA"> F  </i>
   <i type="logical" name="LNABLA"> F  </i>
   <i type="logical" name="LVEL"> F  </i>
   <i type="int" name="KINTER">     0</i>
   <i name="CSHIFT">      0.10000000</i>
   <i name="OMEGAMAX">     -1.00000000</i>
   <i name="DEG_THRESHOLD">      0.00200000</i>
  </separator>
  <separator name="orbital magnetization" >
   <i type="logical" name="NUCIND"> F  </i>
   <v name="MAGPOS">      0.00000000      0.00000000      0.00000000</v>
   <i type="logical" name="LNICSALL"> T  </i>
   <i type="logical" name="ORBITALMAG"> F  </i>
   <i type="logical" name="LMAGBLOCH"> F  </i>
   <i type="logical" name="LCHIMAG"> F  </i>
   <i type="logical" name="LGAUGE"> T  </i>
   <i type="int" name="MAGATOM">     0</i>
   <v name="MAGDIPOL">      0.00000000      0.00000000      0.00000000</v>
   <v name="AVECCONST">      0.00000000      0.00000000      0.00000000</v>
  </separator>
  <separator name="response functions" >
   <i type="logical" name="LADDER"> F  </i>
   <i type="logical" name="LFXC"> F  </i>
   <i type="logical" name="LHARTREE"> T  </i>
   <i type="int" name="IBSE">     0</i>
   <v type="int" name="KPOINT">    -1     0     0     0</v>
   <i type="logical" name="LTCTE"> F  </i>
   <i type="logical" name="LTETE"> F  </i>
   <i type="logical" name="LTRIPLET"> F  </i>
   <i type="logical" name="LFXCEPS"> F  </i>
   <i type="logical" name="LFXHEG"> F  </i>
   <i type="int" name="NATURALO">     0</i>
   <i type="logical" name="L2ORDER"> F  </i>
   <i type="logical" name="LUSEW"> F  </i>
   <i name="ENCUTGW">     -2.00000000</i>
   <i name="ENCUTGWSOFT">     -2.00000000</i>
   <i name="ENCUTLF">     -1.00000000</i>
   <i type="int" name="LMAXMP2">    -1</i>
   <i name="SCISSOR">      0.00000000</i>
   <i type="int" name="NOMEGA">     0</i>
   <i type="int" name="NOMEGAR">     0</i>
   <i type="int" name="NBANDSGW">    -1</i>
   <i type="int" name="NBANDSO">    -1</i>
   <i type="int" name="NBANDSV">    -1</i>
   <i type="int" name="NELM">   300</i>
   <i type="int" name="NELMHF">     1</i>
   <i type="int" name="DIM">     3</i>
   <i type="int" name="ANTIRES">     0</i>
   <i name="OMEGAMAX">    -30.00000000</i>
   <i name="OMEGAMIN">    -30.00000000</i>
   <i name="OMEGATL">   -200.00000000</i>
   <i type="int" name="OMEGAGRID">     0</i>
   <i name="CSHIFT">     -0.10000000</i>
   <i type="logical" name="SELFENERGY"> F  </i>
   <i type="logical" name="LSPECTRAL"> F  </i>
   <i type="logical" name="LSPECTRALGW"> F  </i>
   <i type="logical" name="LSINGLES"> F  </i>
   <i type="logical" name="LFERMIGW"> F  </i>
   <i type="logical" name="ODDONLYGW"> F  </i>
   <i type="logical" name="EVENONLYGW"> F  </i>
   <i type="int" name="NKREDLFX">     1</i>
   <i type="int" name="NKREDLFY">     1</i>
   <i type="int" name="NKREDLFZ">     1</i>
   <i type="int" name="MAXMEM">  1800</i>
   <i type="int" name="TELESCOPE">     0</i>
   <i type="int" name="TAUPAR">     1</i>
   <i type="int" name="OMEGAPAR">    -1</i>
   <i name="LAMBDA">      1.00000000</i>
  </separator>
  <separator name="External order field" >
   <i name="OFIELD_KAPPA">      0.00000000</i>
   <v name="OFIELD_K">      0.00000000      0.00000000      0.00000000</v>
   <i name="OFIELD_Q6_NEAR">      0.00000000</i>
   <i name="OFIELD_Q6_FAR">      0.00000000</i>
   <i name="OFIELD_A">      0.00000000</i>
  </separator>
 </parameters>
 <atominfo>
  <atoms>      18 </atoms>
  <types>       2 </types>
  <array name="atoms" >
   <dimension dim="1">ion</dimension>
   <field type="string">element</field>
   <field type="int">atomtype</field>
   <set>
    <rc><c>Ce</c><c>   1</c></rc>
    <rc><c>Ce</c><c>   1</c></rc>
    <rc><c>Ce</c><c>   1</c></rc>
    <rc><c>Ce</c><c>   1</c></rc>
    <rc><c>Si</c><c>   2</c></rc>
    <rc><c>Si</c><c>   2</c></rc>
    <rc><c>Si</c><c>   2</c></rc>
    <rc><c>Si</c><c>   2</c></rc>
    <rc><c>Si</c><c>   2</c></rc>
    <rc><c>Si</c><c>   2</c></rc>
    <rc><c>Si</c><c>   2</c></rc>
    <rc><c>Si</c><c>   2</c></rc>
    <rc><c>Si</c><c>   2</c></rc>
    <rc><c>Si</c><c>   2</c></rc>
    <rc><c>Si</c><c>   2</c></rc>
    <rc><c>Si</c><c>   2</c></rc>
    <rc><c>Si</c><c>   2</c></rc>
    <rc><c>Si</c><c>   2</c></rc>
   </set>
  </array>
  <array name="atomtypes" >
   <dimension dim="1">type</dimension>
   <field type="int">atomspertype</field>
   <field type="string">element</field>
   <field>mass</field>
   <field>valence</field>
   <field type="string">pseudopotential</field>
   <set>
    <rc><c>   4</c><c>Ce</c><c>    140.11500000</c><c>     12.00000000</c><c>  PAW_PBE Ce 23Dec2003                  </c></rc>
    <rc><c>  14</c><c>Si</c><c>     28.08500000</c><c>      4.00000000</c><c>  PAW_PBE Si 05Jan2001                  </c></rc>
   </set>
  </array>
 </atominfo>
 <structure name="initialpos" >
  <crystal>
   <varray name="basis" >
    <v>       7.04806474       0.00000000       0.00000000 </v>
    <v>       0.00000000       9.94612108       0.00000000 </v>
    <v>       0.00000000       0.00000000       4.46451488 </v>
   </varray>
   <i name="volume">    312.96653466 </i>
   <varray name="rec_basis" >
    <v>       0.14188292      -0.00000000      -0.00000000 </v>
    <v>      -0.00000000       0.10054171      -0.00000000 </v>
    <v>      -0.00000000      -0.00000000       0.22398850 </v>
   </varray>
  </crystal>
  <varray name="positions" >
   <v>       0.00000000       0.70494217       0.00000000 </v>
   <v>       0.00000000       0.29505783       0.00000000 </v>
   <v>       0.50000000       0.20494217       0.00000000 </v>
   <v>       0.50000000       0.79505783       0.00000000 </v>
   <v>       0.00000000       0.50000000       0.50000000 </v>
   <v>       0.50000000       0.00000000       0.50000000 </v>
   <v>       0.18878067       0.86804371       0.50000000 </v>
   <v>       0.81121933       0.13195629       0.50000000 </v>
   <v>       0.18878067       0.13195629       0.50000000 </v>
   <v>       0.81121933       0.86804371       0.50000000 </v>
   <v>       0.68878067       0.36804371       0.50000000 </v>
   <v>       0.31121933       0.63195629       0.50000000 </v>
   <v>       0.68878067       0.63195629       0.50000000 </v>
   <v>       0.31121933       0.36804371       0.50000000 </v>
   <v>       0.17980564       0.00000000       0.00000000 </v>
   <v>       0.82019436       0.00000000       0.00000000 </v>
   <v>       0.67980564       0.50000000       0.00000000 </v>
   <v>       0.32019436       0.50000000       0.00000000 </v>
  </varray>
 </structure>
 <calculation>
  <scstep>
   <time name="dav">   26.06   26.05</time>
   <time name="total">   26.15   26.17</time>
   <energy>
    <i name="alphaZ">    272.28436504 </i>
    <i name="ewald">  -5638.40158396 </i>
    <i name="hartreedc">   -663.56841462 </i>
    <i name="XCdc">   -100.30269226 </i>
    <i name="pawpsdc">   4637.09345849 </i>
    <i name="pawaedc">  -4293.80479442 </i>
    <i name="eentropy">     -0.00034656 </i>
    <i name="bandstr">    916.65154848 </i>
    <i name="atom">   5695.20963491 </i>
    <i name="e_fr_energy">    825.16117510 </i>
    <i name="e_wo_entrp">    825.16152166 </i>
    <i name="e_0_energy">    825.16134838 </i>
   </energy>
  </scstep>
  <scstep>
   <time name="dav">   29.64   29.63</time>
   <time name="total">   29.64   29.65</time>
   <energy>
    <i name="e_fr_energy">     87.14986061 </i>
    <i name="e_wo_entrp">     87.15136634 </i>
    <i name="e_0_energy">     87.15061347 </i>
   </energy>
  </scstep>
  <scstep>
   <time name="dav">   34.10   34.10</time>
   <time name="total">   34.10   34.11</time>
   <energy>
    <i name="e_fr_energy">    -94.20312613 </i>
    <i name="e_wo_entrp">    -94.20212249 </i>
    <i name="e_0_energy">    -94.20262431 </i>
   </energy>
  </scstep>
  <scstep>
   <time name="dav">   40.38   40.38</time>
   <time name="total">   40.38   40.39</time>
   <energy>
    <i name="e_fr_energy">   -106.91338861 </i>
    <i name="e_wo_entrp">   -106.91293602 </i>
    <i name="e_0_energy">   -106.91316231 </i>
   </energy>
  </scstep>
  <scstep>
   <time name="dav">   41.59   41.59</time>
   <time name="total">   43.18   43.18</time>
   <energy>
    <i name="e_fr_energy">   -107.74001503 </i>
    <i name="e_wo_entrp">   -107.73966829 </i>
    <i name="e_0_energy">   -107.73984166 </i>
   </energy>
  </scstep>
  <scstep>
   <time name="diag">    4.84    4.84</time>
   <time name="diis">   29.64   29.64</time>
   <time name="orth">    0.34    0.34</time>
   <time name="total">   36.53   36.54</time>
   <energy>
    <i name="e_fr_energy">   -110.53244489 </i>
    <i name="e_wo_entrp">   -110.52498042 </i>
    <i name="e_0_energy">   -110.52871265 </i>
   </energy>
  </scstep>
  <scstep>
   <time name="diag">    4.84    4.84</time>
   <time name="diis">   27.10   27.10</time>
   <time name="orth">    0.34    0.34</time>
   <time name="total">   33.92   33.92</time>
   <energy>
    <i name="e_fr_energy">   -106.68537850 </i>
    <i name="e_wo_entrp">   -106.68487335 </i>
    <i name="e_0_energy">   -106.68512593 </i>
   </energy>
  </scstep>
  <scstep>
   <time name="diag">    4.84    4.84</time>
   <time name="diis">   33.01   33.01</time>
   <time name="orth">    0.34    0.34</time>
   <time name="total">   39.84   39.84</time>
   <energy>
    <i name="e_fr_energy">   -112.67852947 </i>
    <i name="e_wo_entrp">   -112.67813800 </i>
    <i name="e_0_energy">   -112.67833373 </i>
   </energy>
  </scstep>
  <scstep>
   <time name="diag">    4.83    4.83</time>
   <time name="diis">   29.70   29.69</time>
   <time name="orth">    0.34    0.34</time>
   <time name="total">   36.53   36.53</time>
   <energy>
    <i name="e_fr_energy">   -108.46594287 </i>
    <i name="e_wo_entrp">   -108.46556229 </i>
    <i name="e_0_energy">   -108.46575258 </i>
   </energy>
  </scstep>
  <scstep>
   <time name="diag">    4.84    4.83</time>
   <time name="diis">   31.66   31.66</time>
   <time name="orth">    0.34    0.34</time>
   <time name="total">   38.53   38.59</time>
   <energy>
    <i name="e_fr_energy">   -106.17713956 </i>
    <i name="e_wo_entrp">   -106.17646594 </i>
    <i name="e_0_energy">   -106.17680275 </i>
   </energy>
  </scstep>
  <scstep>
   <time name="diag">    4.84    4.84</time>
   <time name="diis">   36.98   36.98</time>
   <time name="orth">    0.34    0.34</time>
   <time name="total">   43.81   43.82</time>
   <energy>
    <i name="e_fr_energy">   -106.22065202 </i>
    <i name="e_wo_entrp">   -106.21982679 </i>
    <i name="e_0_energy">   -106.22023940 </i>
   </energy>
  </scstep>
  <scstep>
   <time name="diag">    4.84    4.84</time>
   <time name="diis">   37.90   37.89</time>
   <time name="orth">    0.34    0.34</time>
   <time name="total">   44.75   44.77</time>
   <energy>
    <i name="e_fr_energy">   -106.23329023 </i>
    <i name="e_wo_entrp">   -106.23249129 </i>
    <i name="e_0_energy">   -106.23289076 </i>
   </energy>
  </scstep>
  <scstep>
   <time name="diag">    4.84    4.84</time>
   <time name="diis">   38.12   38.12</time>
   <time name="orth">    0.34    0.34</time>
   <time name="total">   44.95   44.96</time>
   <energy>
    <i name="e_fr_energy">   -106.23957537 </i>
    <i name="e_wo_entrp">   -106.23878379 </i>
    <i name="e_0_energy">   -106.23917958 </i>
   </energy>
  </scstep>
  <scstep>
   <time name="diag">    4.84    4.84</time>
   <time name="diis">   27.57   27.57</time>
   <time name="orth">    0.34    0.34</time>
   <time name="total">   34.42   34.43</time>
   <energy>
    <i name="e_fr_energy">   -106.44064345 </i>
    <i name="e_wo_entrp">   -106.44015231 </i>
    <i name="e_0_energy">   -106.44039788 </i>
   </energy>
  </scstep>
  <scstep>
   <time name="diag">    4.88    4.88</time>
   <time name="diis">   31.77   31.76</time>
   <time name="orth">    0.34    0.34</time>
   <time name="total">   38.65   38.65</time>
   <energy>
    <i name="e_fr_energy">   -107.52209736 </i>
    <i name="e_wo_entrp">   -107.52169078 </i>
    <i name="e_0_energy">   -107.52189407 </i>
   </energy>
  </scstep>
  <scstep>
   <time name="diag">    4.84    4.84</time>
   <time name="diis">   35.39   35.39</time>
   <time name="orth">    0.34    0.34</time>
   <time name="total">   42.21   42.23</time>
   <energy>
    <i name="e_fr_energy">   -107.41816739 </i>
    <i name="e_wo_entrp">   -107.41778184 </i>
    <i name="e_0_energy">   -107.41797461 </i>
   </energy>
  </scstep>
  <scstep>
   <time name="diag">    4.84    4.84</time>
   <time name="diis">   32.80   32.80</time>
   <time name="orth">    0.34    0.34</time>
   <time name="total">   39.63   39.64</time>
   <energy>
    <i name="e_fr_energy">   -107.45902082 </i>
    <i name="e_wo_entrp">   -107.45866370 </i>
    <i name="e_0_energy">   -107.45884226 </i>
   </energy>
  </scstep>
  <scstep>
   <time name="diag">    4.88    4.88</time>
   <time name="diis">   27.61   27.60</time>
   <time name="orth">    0.34    0.34</time>
   <time name="total">   34.46   34.48</time>
   <energy>
    <i name="e_fr_energy">   -106.75122625 </i>
    <i name="e_wo_entrp">   -106.75088136 </i>
    <i name="e_0_energy">   -106.75105381 </i>
   </energy>
  </scstep>
  <scstep>
   <time name="diag">    4.84    4.84</time>
   <time name="diis">   32.45   32.44</time>
   <time name="orth">    0.34    0.34</time>
   <time name="total">   39.27   39.28</time>
   <energy>
    <i name="e_fr_energy">   -106.54446614 </i>
    <i name="e_wo_entrp">   -106.54415623 </i>
    <i name="e_0_energy">   -106.54431119 </i>
   </energy>
  </scstep>
  <scstep>
   <time name="diag">    4.83    4.83</time>
   <time name="diis">   36.01   36.01</time>
   <time name="orth">    0.34    0.34</time>
   <time name="total">   42.82   42.84</time>
   <energy>
    <i name="e_fr_energy">   -106.57134824 </i>
    <i name="e_wo_entrp">   -106.57104575 </i>
    <i name="e_0_energy">   -106.57119699 </i>
   </energy>
  </scstep>
  <scstep>
   <time name="diag">    4.90    4.90</time>
   <time name="diis">   30.05   30.05</time>
   <time name="orth">    0.34    0.34</time>
   <time name="total">   36.99   36.99</time>
   <energy>
    <i name="e_fr_energy">   -106.38155386 </i>
    <i name="e_wo_entrp">   -106.38102909 </i>
    <i name="e_0_energy">   -106.38129148 </i>
   </energy>
  </scstep>
  <scstep>
   <time name="diag">    4.84    4.84</time>
   <time name="diis">   33.95   33.94</time>
   <time name="orth">    0.34    0.34</time>
   <time name="total">   40.76   40.76</time>
   <energy>
    <i name="e_fr_energy">   -106.31930256 </i>
    <i name="e_wo_entrp">   -106.31866863 </i>
    <i name="e_0_energy">   -106.31898560 </i>
   </energy>
  </scstep>
  <scstep>
   <time name="diag">    4.84    4.84</time>
   <time name="diis">   35.05   35.04</time>
   <time name="orth">    0.34    0.34</time>
   <time name="total">   41.86   41.87</time>
   <energy>
    <i name="e_fr_energy">   -106.28426626 </i>
    <i name="e_wo_entrp">   -106.28356336 </i>
    <i name="e_0_energy">   -106.28391481 </i>
   </energy>
  </scstep>
  <scstep>
   <time name="diag">    4.84    4.84</time>
   <time name="diis">   35.00   34.99</time>
   <time name="orth">    0.34    0.34</time>
   <time name="total">   41.83   41.86</time>
   <energy>
    <i name="e_fr_energy">   -106.24961996 </i>
    <i name="e_wo_entrp">   -106.24883801 </i>
    <i name="e_0_energy">   -106.24922898 </i>
   </energy>
  </scstep>
  <scstep>
   <time name="diag">    4.84    4.83</time>
   <time name="diis">   35.68   35.68</time>
   <time name="orth">    0.34    0.34</time>
   <time name="total">   42.50   42.51</time>
   <energy>
    <i name="e_fr_energy">   -106.23900708 </i>
    <i name="e_wo_entrp">   -106.23817618 </i>
    <i name="e_0_energy">   -106.23859163 </i>
   </energy>
  </scstep>
  <scstep>
   <time name="diag">    4.95    4.95</time>
   <time name="diis">   36.33   36.32</time>
   <time name="orth">    0.39    0.39</time>
   <time name="total">   43.29   43.30</time>
   <energy>
    <i name="e_fr_energy">   -106.23410515 </i>
    <i name="e_wo_entrp">   -106.23324914 </i>
    <i name="e_0_energy">   -106.23367714 </i>
   </energy>
  </scstep>
  <scstep>
   <time name="diag">    4.83    4.83</time>
   <time name="diis">   35.75   35.74</time>
   <time name="orth">    0.34    0.34</time>
   <time name="total">   42.56   42.57</time>
   <energy>
    <i name="e_fr_energy">   -106.23049421 </i>
    <i name="e_wo_entrp">   -106.22962050 </i>
    <i name="e_0_energy">   -106.23005736 </i>
   </energy>
  </scstep>
  <scstep>
   <time name="diag">    4.83    4.83</time>
   <time name="diis">   34.19   34.19</time>
   <time name="orth">    0.34    0.34</time>
   <time name="total">   41.02   41.02</time>
   <energy>
    <i name="e_fr_energy">   -106.22659622 </i>
    <i name="e_wo_entrp">   -106.22570961 </i>
    <i name="e_0_energy">   -106.22615291 </i>
   </energy>
  </scstep>
  <scstep>
   <time name="diag">    4.87    4.87</time>
   <time name="diis">   33.94   33.94</time>
   <time name="orth">    0.34    0.34</time>
   <time name="total">   40.79   40.80</time>
   <energy>
    <i name="e_fr_energy">   -106.22446673 </i>
    <i name="e_wo_entrp">   -106.22358490 </i>
    <i name="e_0_energy">   -106.22402582 </i>
   </energy>
  </scstep>
  <scstep>
   <time name="diag">    4.83    4.83</time>
   <time name="diis">   35.39   35.39</time>
   <time name="orth">    0.34    0.34</time>
   <time name="total">   42.21   42.22</time>
   <energy>
    <i name="e_fr_energy">   -106.22443788 </i>
    <i name="e_wo_entrp">   -106.22356034 </i>
    <i name="e_0_energy">   -106.22399911 </i>
   </energy>
  </scstep>
  <scstep>
   <time name="diag">    4.83    4.83</time>
   <time name="diis">   36.50   36.50</time>
   <time name="orth">    0.39    0.39</time>
   <time name="total">   43.35   43.35</time>
   <energy>
    <i name="e_fr_energy">   -106.22449044 </i>
    <i name="e_wo_entrp">   -106.22361405 </i>
    <i name="e_0_energy">   -106.22405225 </i>
   </energy>
  </scstep>
  <scstep>
   <time name="diag">    4.83    4.83</time>
   <time name="diis">   34.26   34.25</time>
   <time name="orth">    0.34    0.34</time>
   <time name="total">   41.07   41.08</time>
   <energy>
    <i name="e_fr_energy">   -106.22454676 </i>
    <i name="e_wo_entrp">   -106.22367140 </i>
    <i name="e_0_energy">   -106.22410908 </i>
   </energy>
  </scstep>
  <scstep>
   <time name="diag">    4.86    4.86</time>
   <time name="diis">   32.97   32.97</time>
   <time name="orth">    0.34    0.34</time>
   <time name="total">   39.81   39.82</time>
   <energy>
    <i name="e_fr_energy">   -106.22456208 </i>
    <i name="e_wo_entrp">   -106.22368662 </i>
    <i name="e_0_energy">   -106.22412435 </i>
   </energy>
  </scstep>
  <scstep>
   <time name="diag">    4.83    4.83</time>
   <time name="diis">   28.54   28.54</time>
   <time name="orth">    0.34    0.34</time>
   <time name="total">   35.37   35.37</time>
   <energy>
    <i name="e_fr_energy">   -106.22456724 </i>
    <i name="e_wo_entrp">   -106.22369181 </i>
    <i name="e_0_energy">   -106.22412953 </i>
   </energy>
  </scstep>
  <scstep>
   <time name="diag">    4.87    4.87</time>
   <time name="diis">   27.37   27.37</time>
   <time name="orth">    0.34    0.34</time>
   <time name="total">   34.24   34.25</time>
   <energy>
    <i name="e_fr_energy">   -106.22457483 </i>
    <i name="e_wo_entrp">   -106.22369943 </i>
    <i name="e_0_energy">   -106.22413713 </i>
   </energy>
  </scstep>
  <scstep>
   <time name="diag">    4.83    4.83</time>
   <time name="diis">   30.34   30.34</time>
   <time name="orth">    0.34    0.34</time>
   <time name="total">   37.15   37.16</time>
   <energy>
    <i name="e_fr_energy">   -106.22452950 </i>
    <i name="e_wo_entrp">   -106.22365278 </i>
    <i name="e_0_energy">   -106.22409114 </i>
   </energy>
  </scstep>
  <scstep>
   <time name="diag">    4.83    4.83</time>
   <time name="diis">   26.83   26.82</time>
   <time name="orth">    0.34    0.34</time>
   <time name="total">   33.67   33.68</time>
   <energy>
    <i name="e_fr_energy">   -106.22452873 </i>
    <i name="e_wo_entrp">   -106.22365167 </i>
    <i name="e_0_energy">   -106.22409020 </i>
   </energy>
  </scstep>
  <scstep>
   <time name="diag">    4.83    4.83</time>
   <time name="diis">   21.65   21.64</time>
   <time name="orth">    0.34    0.34</time>
   <time name="total">   28.46   28.47</time>
   <energy>
    <i name="e_fr_energy">   -106.22453132 </i>
    <i name="e_wo_entrp">   -106.22365428 </i>
    <i name="e_0_energy">   -106.22409280 </i>
   </energy>
  </scstep>
  <scstep>
   <time name="diag">    4.82    4.82</time>
   <time name="diis">   21.41   21.41</time>
   <time name="orth">    0.34    0.34</time>
   <time name="total">   28.20   28.21</time>
   <energy>
    <i name="e_fr_energy">   -106.22453029 </i>
    <i name="e_wo_entrp">   -106.22365311 </i>
    <i name="e_0_energy">   -106.22409170 </i>
   </energy>
  </scstep>
  <scstep>
   <time name="diag">    4.84    4.84</time>
   <time name="diis">   23.38   23.38</time>
   <time name="orth">    0.34    0.34</time>
   <time name="total">   30.20   30.20</time>
   <energy>
    <i name="e_fr_energy">   -106.22452825 </i>
    <i name="e_wo_entrp">   -106.22365083 </i>
    <i name="e_0_energy">   -106.22408954 </i>
   </energy>
  </scstep>
  <scstep>
   <time name="diag">    4.83    4.83</time>
   <time name="diis">   22.85   22.85</time>
   <time name="orth">    0.34    0.34</time>
   <time name="total">   29.70   29.71</time>
   <energy>
    <i name="e_fr_energy">   -106.22452789 </i>
    <i name="e_wo_entrp">   -106.22365032 </i>
    <i name="e_0_energy">   -106.22408911 </i>
   </energy>
  </scstep>
  <scstep>
   <time name="diag">    4.82    4.82</time>
   <time name="diis">   20.16   20.15</time>
   <time name="orth">    0.34    0.34</time>
   <time name="total">   25.39   25.40</time>
   <energy>
    <i name="alphaZ">    272.28436504 </i>
    <i name="ewald">  -5638.40158396 </i>
    <i name="hartreedc">   -645.85178002 </i>
    <i name="XCdc">    -98.62106883 </i>
    <i name="pawpsdc">   8516.65932100 </i>
    <i name="pawaedc">  -8176.51859730 </i>
    <i name="eentropy">     -0.00087764 </i>
    <i name="bandstr">    -30.98394138 </i>
    <i name="atom">   5695.20963491 </i>
    <i name="e_fr_energy">   -106.22452818 </i>
    <i name="e_wo_entrp">   -106.22365054 </i>
    <i name="e_0_energy">   -106.22408936 </i>
   </energy>
  </scstep>
  <structure>
   <crystal>
    <varray name="basis" >
     <v>       7.04806474       0.00000000       0.00000000 </v>
     <v>       0.00000000       9.94612108       0.00000000 </v>
     <v>       0.00000000       0.00000000       4.46451488 </v>
    </varray>
    <i name="volume">    312.96653466 </i>
    <varray name="rec_basis" >
     <v>       0.14188292      -0.00000000      -0.00000000 </v>
     <v>      -0.00000000       0.10054171      -0.00000000 </v>
     <v>      -0.00000000      -0.00000000       0.22398850 </v>
    </varray>
   </crystal>
   <varray name="positions" >
    <v>       0.00000000       0.70494217       0.00000000 </v>
    <v>       0.00000000       0.29505783       0.00000000 </v>
    <v>       0.50000000       0.20494217       0.00000000 </v>
    <v>       0.50000000       0.79505783       0.00000000 </v>
    <v>       0.00000000       0.50000000       0.50000000 </v>
    <v>       0.50000000       0.00000000       0.50000000 </v>
    <v>       0.18878067       0.86804371       0.50000000 </v>
    <v>       0.81121933       0.13195629       0.50000000 </v>
    <v>       0.18878067       0.13195629       0.50000000 </v>
    <v>       0.81121933       0.86804371       0.50000000 </v>
    <v>       0.68878067       0.36804371       0.50000000 </v>
    <v>       0.31121933       0.63195629       0.50000000 </v>
    <v>       0.68878067       0.63195629       0.50000000 </v>
    <v>       0.31121933       0.36804371       0.50000000 </v>
    <v>       0.17980564       0.00000000       0.00000000 </v>
    <v>       0.82019436       0.00000000       0.00000000 </v>
    <v>       0.67980564       0.50000000       0.00000000 </v>
    <v>       0.32019436       0.50000000       0.00000000 </v>
   </varray>
  </structure>
  <varray name="forces" >
   <v>      -0.00000000      -0.02650641      -0.00000000 </v>
   <v>       0.00000000       0.02650641       0.00000000 </v>
   <v>      -0.00000000      -0.02650641      -0.00000000 </v>
   <v>       0.00000000       0.02650641       0.00000000 </v>
   <v>       0.00000000       0.00000000      -0.00000000 </v>
   <v>       0.00000000       0.00000000      -0.00000000 </v>
   <v>       0.01205419      -0.02406982      -0.00000000 </v>
   <v>      -0.01205419       0.02406982       0.00000000 </v>
   <v>       0.01205419       0.02406982       0.00000000 </v>
   <v>      -0.01205419      -0.02406982      -0.00000000 </v>
   <v>       0.01205419      -0.02406982      -0.00000000 </v>
   <v>      -0.01205419       0.02406982       0.00000000 </v>
   <v>       0.01205419       0.02406982       0.00000000 </v>
   <v>      -0.01205419      -0.02406982      -0.00000000 </v>
   <v>       0.03487576       0.00000000       0.00000000 </v>
   <v>      -0.03487576       0.00000000      -0.00000000 </v>
   <v>       0.03487576       0.00000000       0.00000000 </v>
   <v>      -0.03487576       0.00000000      -0.00000000 </v>
  </varray>
  <varray name="stress" >
   <v>      -0.81586625       0.00000000       0.00000000 </v>
   <v>       0.00000000      -0.59418674       0.00000000 </v>
   <v>       0.00000000       0.00000000      -1.61509727 </v>
  </varray>
  <energy>
   <i name="e_fr_energy">   -106.22452818 </i>
   <i name="e_wo_entrp">   -106.22408936 </i>
   <i name="e_0_energy">     -0.00087764 </i>
  </energy>
  <scstep>
   <time name="total">   60.78   60.77</time>
   <energy>
    <i name="e_fr_energy">   -349.62580226 </i>
    <i name="e_wo_entrp">   -349.62580226 </i>
    <i name="e_0_energy">   -349.62580226 </i>
   </energy>
  </scstep>
  <scstep>
   <time name="total">   43.41   43.41</time>
   <energy>
    <i name="e_fr_energy">   -321.45748714 </i>
    <i name="e_wo_entrp">   -321.45748714 </i>
    <i name="e_0_energy">   -321.45748714 </i>
   </energy>
  </scstep>
  <scstep>
   <time name="total">   53.25   53.25</time>
   <energy>
    <i name="e_fr_energy">   -354.69141913 </i>
    <i name="e_wo_entrp">   -354.69141913 </i>
    <i name="e_0_energy">   -354.69141913 </i>
   </energy>
  </scstep>
  <scstep>
   <time name="total">   48.49   48.49</time>
   <energy>
    <i name="e_fr_energy">   -360.93557067 </i>
    <i name="e_wo_entrp">   -360.93557067 </i>
    <i name="e_0_energy">   -360.93557067 </i>
   </energy>
  </scstep>
  <scstep>
   <time name="total">   50.69   50.69</time>
   <energy>
    <i name="e_fr_energy">   -361.81431893 </i>
    <i name="e_wo_entrp">   -361.81431893 </i>
    <i name="e_0_energy">   -361.81431893 </i>
   </energy>
  </scstep>
  <scstep>
   <time name="total">   50.69   50.69</time>
   <energy>
    <i name="e_fr_energy">   -362.00753034 </i>
    <i name="e_wo_entrp">   -362.00753034 </i>
    <i name="e_0_energy">   -362.00753034 </i>
   </energy>
  </scstep>
  <scstep>
   <time name="total">   50.13   50.13</time>
   <energy>
    <i name="e_fr_energy">   -362.07869331 </i>
    <i name="e_wo_entrp">   -362.07869331 </i>
    <i name="e_0_energy">   -362.07869331 </i>
   </energy>
  </scstep>
  <scstep>
   <time name="total">   49.69   49.69</time>
   <energy>
    <i name="e_fr_energy">   -362.10928835 </i>
    <i name="e_wo_entrp">   -362.10928835 </i>
    <i name="e_0_energy">   -362.10928835 </i>
   </energy>
  </scstep>
  <scstep>
   <time name="total">   48.82   48.81</time>
   <energy>
    <i name="e_fr_energy">   -362.12572163 </i>
    <i name="e_wo_entrp">   -362.12572163 </i>
    <i name="e_0_energy">   -362.12572163 </i>
   </energy>
  </scstep>
  <scstep>
   <time name="total">   48.10   48.09</time>
   <energy>
    <i name="e_fr_energy">   -362.13357180 </i>
    <i name="e_wo_entrp">   -362.13357180 </i>
    <i name="e_0_energy">   -362.13357180 </i>
   </energy>
  </scstep>
  <scstep>
   <time name="total">   47.40   47.40</time>
   <energy>
    <i name="e_fr_energy">   -362.13769786 </i>
    <i name="e_wo_entrp">   -362.13769786 </i>
    <i name="e_0_energy">   -362.13769786 </i>
   </energy>
  </scstep>
  <scstep>
   <time name="total">   46.52   46.52</time>
   <energy>
    <i name="e_fr_energy">   -362.13984945 </i>
    <i name="e_wo_entrp">   -362.13984945 </i>
    <i name="e_0_energy">   -362.13984945 </i>
   </energy>
  </scstep>
  <scstep>
   <time name="total">   45.64   45.64</time>
   <energy>
    <i name="e_fr_energy">   -362.14093578 </i>
    <i name="e_wo_entrp">   -362.14093578 </i>
    <i name="e_0_energy">   -362.14093578 </i>
   </energy>
  </scstep>
  <scstep>
   <time name="total">   44.62   44.62</time>
   <energy>
    <i name="e_fr_energy">   -362.14151493 </i>
    <i name="e_wo_entrp">   -362.14151493 </i>
    <i name="e_0_energy">   -362.14151493 </i>
   </energy>
  </scstep>
  <scstep>
   <time name="total">   43.56   43.56</time>
   <energy>
    <i name="e_fr_energy">   -362.14187685 </i>
    <i name="e_wo_entrp">   -362.14187685 </i>
    <i name="e_0_energy">   -362.14187685 </i>
   </energy>
  </scstep>
  <scstep>
   <time name="total">   42.10   42.10</time>
   <energy>
    <i name="e_fr_energy">   -362.14207511 </i>
    <i name="e_wo_entrp">   -362.14207511 </i>
    <i name="e_0_energy">   -362.14207511 </i>
   </energy>
  </scstep>
  <scstep>
   <time name="total">   41.20   41.20</time>
   <energy>
    <i name="e_fr_energy">   -362.14212491 </i>
    <i name="e_wo_entrp">   -362.14212491 </i>
    <i name="e_0_energy">   -362.14212491 </i>
   </energy>
  </scstep>
  <scstep>
   <time name="total">   39.73   39.73</time>
   <energy>
    <i name="e_fr_energy">   -362.14221313 </i>
    <i name="e_wo_entrp">   -362.14221313 </i>
    <i name="e_0_energy">   -362.14221313 </i>
   </energy>
  </scstep>
  <scstep>
   <time name="total">   38.93   38.93</time>
   <energy>
    <i name="e_fr_energy">   -362.14223289 </i>
    <i name="e_wo_entrp">   -362.14223289 </i>
    <i name="e_0_energy">   -362.14223289 </i>
   </energy>
  </scstep>
  <scstep>
   <time name="total">   37.93   37.93</time>
   <energy>
    <i name="e_fr_energy">   -362.14231029 </i>
    <i name="e_wo_entrp">   -362.14231029 </i>
    <i name="e_0_energy">   -362.14231029 </i>
   </energy>
  </scstep>
  <scstep>
   <time name="total">   36.90   36.90</time>
   <energy>
    <i name="e_fr_energy">   -362.14224279 </i>
    <i name="e_wo_entrp">   -362.14224279 </i>
    <i name="e_0_energy">   -362.14224279 </i>
   </energy>
  </scstep>
  <scstep>
   <time name="total">   61.69   61.68</time>
   <energy>
    <i name="e_fr_energy">   -359.10189096 </i>
    <i name="e_wo_entrp">   -359.10189096 </i>
    <i name="e_0_energy">   -359.10189096 </i>
   </energy>
  </scstep>
  <scstep>
   <time name="total">   44.06   44.06</time>
   <energy>
    <i name="e_fr_energy">   -328.65455735 </i>
    <i name="e_wo_entrp">   -328.65455735 </i>
    <i name="e_0_energy">   -328.65455735 </i>
   </energy>
  </scstep>
  <scstep>
   <time name="total">   53.89   53.89</time>
   <energy>
    <i name="e_fr_energy">   -357.40591897 </i>
    <i name="e_wo_entrp">   -357.40591897 </i>
    <i name="e_0_energy">   -357.40591897 </i>
   </energy>
  </scstep>
  <scstep>
   <time name="total">   49.58   49.58</time>
   <energy>
    <i name="e_fr_energy">   -362.81258425 </i>
    <i name="e_wo_entrp">   -362.81258425 </i>
    <i name="e_0_energy">   -362.81258425 </i>
   </energy>
  </scstep>
  <scstep>
   <time name="total">   52.01   52.01</time>
   <energy>
    <i name="e_fr_energy">   -363.91861578 </i>
    <i name="e_wo_entrp">   -363.91861578 </i>
    <i name="e_0_energy">   -363.91861578 </i>
   </energy>
  </scstep>
  <scstep>
   <time name="total">   51.81   51.81</time>
   <energy>
    <i name="e_fr_energy">   -364.14277253 </i>
    <i name="e_wo_entrp">   -364.14277253 </i>
    <i name="e_0_energy">   -364.14277253 </i>
   </energy>
  </scstep>
  <scstep>
   <time name="total">   51.47   51.47</time>
   <energy>
    <i name="e_fr_energy">   -364.22543237 </i>
    <i name="e_wo_entrp">   -364.22543237 </i>
    <i name="e_0_energy">   -364.22543237 </i>
   </energy>
  </scstep>
  <scstep>
   <time name="total">   51.39   51.39</time>
   <energy>
    <i name="e_fr_energy">   -364.26236364 </i>
    <i name="e_wo_entrp">   -364.26236364 </i>
    <i name="e_0_energy">   -364.26236364 </i>
   </energy>
  </scstep>
  <scstep>
   <time name="total">   50.47   50.46</time>
   <energy>
    <i name="e_fr_energy">   -364.28657179 </i>
    <i name="e_wo_entrp">   -364.28657179 </i>
    <i name="e_0_energy">   -364.28657179 </i>
   </energy>
  </scstep>
  <scstep>
   <time name="total">   49.89   49.89</time>
   <energy>
    <i name="e_fr_energy">   -364.29658377 </i>
    <i name="e_wo_entrp">   -364.29658377 </i>
    <i name="e_0_energy">   -364.29658377 </i>
   </energy>
  </scstep>
  <scstep>
   <time name="total">   48.99   48.99</time>
   <energy>
    <i name="e_fr_energy">   -364.30557429 </i>
    <i name="e_wo_entrp">   -364.30557429 </i>
    <i name="e_0_energy">   -364.30557429 </i>
   </energy>
  </scstep>
  <scstep>
   <time name="total">   48.12   48.12</time>
   <energy>
    <i name="e_fr_energy">   -364.30738156 </i>
    <i name="e_wo_entrp">   -364.30738156 </i>
    <i name="e_0_energy">   -364.30738156 </i>
   </energy>
  </scstep>
  <scstep>
   <time name="total">   46.80   46.81</time>
   <energy>
    <i name="e_fr_energy">   -364.31245115 </i>
    <i name="e_wo_entrp">   -364.31245115 </i>
    <i name="e_0_energy">   -364.31245115 </i>
   </energy>
  </scstep>
  <scstep>
   <time name="total">   45.54   45.54</time>
   <energy>
    <i name="e_fr_energy">   -364.31159981 </i>
    <i name="e_wo_entrp">   -364.31159981 </i>
    <i name="e_0_energy">   -364.31159981 </i>
   </energy>
  </scstep>
  <scstep>
   <time name="total">   43.95   43.95</time>
   <energy>
    <i name="e_fr_energy">   -364.31466591 </i>
    <i name="e_wo_entrp">   -364.31466591 </i>
    <i name="e_0_energy">   -364.31466591 </i>
   </energy>
  </scstep>
  <scstep>
   <time name="total">   42.94   42.94</time>
   <energy>
    <i name="e_fr_energy">   -364.31336400 </i>
    <i name="e_wo_entrp">   -364.31336400 </i>
    <i name="e_0_energy">   -364.31336400 </i>
   </energy>
  </scstep>
  <scstep>
   <time name="total">   41.62   41.62</time>
   <energy>
    <i name="e_fr_energy">   -364.31533939 </i>
    <i name="e_wo_entrp">   -364.31533939 </i>
    <i name="e_0_energy">   -364.31533939 </i>
   </energy>
  </scstep>
  <scstep>
   <time name="total">   40.53   40.53</time>
   <energy>
    <i name="e_fr_energy">   -364.31378441 </i>
    <i name="e_wo_entrp">   -364.31378441 </i>
    <i name="e_0_energy">   -364.31378441 </i>
   </energy>
  </scstep>
  <scstep>
   <time name="total">   39.70   39.70</time>
   <energy>
    <i name="e_fr_energy">   -364.31531766 </i>
    <i name="e_wo_entrp">   -364.31531766 </i>
    <i name="e_0_energy">   -364.31531766 </i>
   </energy>
  </scstep>
  <scstep>
   <time name="total">   38.90   38.90</time>
   <energy>
    <i name="e_fr_energy">   -364.31390429 </i>
    <i name="e_wo_entrp">   -364.31390429 </i>
    <i name="e_0_energy">   -364.31390429 </i>
   </energy>
  </scstep>
  <scstep>
   <time name="total">   38.25   38.25</time>
   <energy>
    <i name="e_fr_energy">   -364.31545806 </i>
    <i name="e_wo_entrp">   -364.31545806 </i>
    <i name="e_0_energy">   -364.31545806 </i>
   </energy>
  </scstep>
  <scstep>
   <time name="total">   37.12   37.12</time>
   <energy>
    <i name="e_fr_energy">   -364.31465258 </i>
    <i name="e_wo_entrp">   -364.31465258 </i>
    <i name="e_0_energy">   -364.31465258 </i>
   </energy>
  </scstep>
  <scstep>
   <time name="total">   37.21   37.21</time>
   <energy>
    <i name="e_fr_energy">   -364.31575460 </i>
    <i name="e_wo_entrp">   -364.31575460 </i>
    <i name="e_0_energy">   -364.31575460 </i>
   </energy>
  </scstep>
  <scstep>
   <time name="total">   60.31   60.30</time>
   <energy>
    <i name="e_fr_energy">   -349.89552930 </i>
    <i name="e_wo_entrp">   -349.89552930 </i>
    <i name="e_0_energy">   -349.89552930 </i>
   </energy>
  </scstep>
  <scstep>
   <time name="total">   45.00   45.00</time>
   <energy>
    <i name="e_fr_energy">   -308.91109381 </i>
    <i name="e_wo_entrp">   -308.91109381 </i>
    <i name="e_0_energy">   -308.91109381 </i>
   </energy>
  </scstep>
  <scstep>
   <time name="total">   54.32   54.31</time>
   <energy>
    <i name="e_fr_energy">   -352.86131924 </i>
    <i name="e_wo_entrp">   -352.86131924 </i>
    <i name="e_0_energy">   -352.86131924 </i>
   </energy>
  </scstep>
  <scstep>
   <time name="total">   48.77   48.76</time>
   <energy>
    <i name="e_fr_energy">   -358.29720983 </i>
    <i name="e_wo_entrp">   -358.29720983 </i>
    <i name="e_0_energy">   -358.29720983 </i>
   </energy>
  </scstep>
  <scstep>
   <time name="total">   50.94   50.94</time>
   <energy>
    <i name="e_fr_energy">   -359.20239259 </i>
    <i name="e_wo_entrp">   -359.20239259 </i>
    <i name="e_0_energy">   -359.20239259 </i>
   </energy>
  </scstep>
  <scstep>
   <time name="total">   50.92   50.92</time>
   <energy>
    <i name="e_fr_energy">   -359.43531451 </i>
    <i name="e_wo_entrp">   -359.43531451 </i>
    <i name="e_0_energy">   -359.43531451 </i>
   </energy>
  </scstep>
  <scstep>
   <time name="total">   50.49   50.49</time>
   <energy>
    <i name="e_fr_energy">   -359.51657630 </i>
    <i name="e_wo_entrp">   -359.51657630 </i>
    <i name="e_0_energy">   -359.51657630 </i>
   </energy>
  </scstep>
  <scstep>
   <time name="total">   50.39   50.38</time>
   <energy>
    <i name="e_fr_energy">   -359.55778527 </i>
    <i name="e_wo_entrp">   -359.55778527 </i>
    <i name="e_0_energy">   -359.55778527 </i>
   </energy>
  </scstep>
  <scstep>
   <time name="total">   49.65   49.65</time>
   <energy>
    <i name="e_fr_energy">   -359.57974599 </i>
    <i name="e_wo_entrp">   -359.57974599 </i>
    <i name="e_0_energy">   -359.57974599 </i>
   </energy>
  </scstep>
  <scstep>
   <time name="total">   49.27   49.26</time>
   <energy>
    <i name="e_fr_energy">   -359.59211950 </i>
    <i name="e_wo_entrp">   -359.59211950 </i>
    <i name="e_0_energy">   -359.59211950 </i>
   </energy>
  </scstep>
  <scstep>
   <time name="total">   48.83   48.83</time>
   <energy>
    <i name="e_fr_energy">   -359.59886645 </i>
    <i name="e_wo_entrp">   -359.59886645 </i>
    <i name="e_0_energy">   -359.59886645 </i>
   </energy>
  </scstep>
  <scstep>
   <time name="total">   47.94   47.94</time>
   <energy>
    <i name="e_fr_energy">   -359.60293470 </i>
    <i name="e_wo_entrp">   -359.60293470 </i>
    <i name="e_0_energy">   -359.60293470 </i>
   </energy>
  </scstep>
  <scstep>
   <time name="total">   47.14   47.14</time>
   <energy>
    <i name="e_fr_energy">   -359.60525655 </i>
    <i name="e_wo_entrp">   -359.60525655 </i>
    <i name="e_0_energy">   -359.60525655 </i>
   </energy>
  </scstep>
  <scstep>
   <time name="total">   45.91   45.90</time>
   <energy>
    <i name="e_fr_energy">   -359.60668627 </i>
    <i name="e_wo_entrp">   -359.60668627 </i>
    <i name="e_0_energy">   -359.60668627 </i>
   </energy>
  </scstep>
  <scstep>
   <time name="total">   44.93   44.93</time>
   <energy>
    <i name="e_fr_energy">   -359.60756730 </i>
    <i name="e_wo_entrp">   -359.60756730 </i>
    <i name="e_0_energy">   -359.60756730 </i>
   </energy>
  </scstep>
  <scstep>
   <time name="total">   43.56   43.56</time>
   <energy>
    <i name="e_fr_energy">   -359.60808921 </i>
    <i name="e_wo_entrp">   -359.60808921 </i>
    <i name="e_0_energy">   -359.60808921 </i>
   </energy>
  </scstep>
  <scstep>
   <time name="total">   42.46   42.45</time>
   <energy>
    <i name="e_fr_energy">   -359.60847623 </i>
    <i name="e_wo_entrp">   -359.60847623 </i>
    <i name="e_0_energy">   -359.60847623 </i>
   </energy>
  </scstep>
  <scstep>
   <time name="total">   41.34   41.34</time>
   <energy>
    <i name="e_fr_energy">   -359.60865270 </i>
    <i name="e_wo_entrp">   -359.60865270 </i>
    <i name="e_0_energy">   -359.60865270 </i>
   </energy>
  </scstep>
  <scstep>
   <time name="total">   40.45   40.45</time>
   <energy>
    <i name="e_fr_energy">   -359.60882815 </i>
    <i name="e_wo_entrp">   -359.60882815 </i>
    <i name="e_0_energy">   -359.60882815 </i>
   </energy>
  </scstep>
  <scstep>
   <time name="total">   39.27   39.27</time>
   <energy>
    <i name="e_fr_energy">   -359.60887140 </i>
    <i name="e_wo_entrp">   -359.60887140 </i>
    <i name="e_0_energy">   -359.60887140 </i>
   </energy>
  </scstep>
  <scstep>
   <time name="total">   38.85   38.84</time>
   <energy>
    <i name="e_fr_energy">   -359.60897403 </i>
    <i name="e_wo_entrp">   -359.60897403 </i>
    <i name="e_0_energy">   -359.60897403 </i>
   </energy>
  </scstep>
  <scstep>
   <time name="total">   37.73   37.73</time>
   <energy>
    <i name="e_fr_energy">   -359.60897040 </i>
    <i name="e_wo_entrp">   -359.60897040 </i>
    <i name="e_0_energy">   -359.60897040 </i>
   </energy>
  </scstep>
  <scstep>
   <time name="total">   37.43   37.43</time>
   <energy>
    <i name="e_fr_energy">   -359.60904206 </i>
    <i name="e_wo_entrp">   -359.60904206 </i>
    <i name="e_0_energy">   -359.60904206 </i>
   </energy>
  </scstep>
  <scstep>
   <time name="total">   36.65   36.65</time>
   <energy>
    <i name="e_fr_energy">   -359.60900440 </i>
    <i name="e_wo_entrp">   -359.60900440 </i>
    <i name="e_0_energy">   -359.60900440 </i>
   </energy>
  </scstep>
  <scstep>
   <time name="total">   32.14   32.14</time>
   <energy>
    <i name="e_fr_energy">   -105.89855310 </i>
    <i name="e_wo_entrp">   -105.89855310 </i>
    <i name="e_0_energy">   -105.89855310 </i>
   </energy>
  </scstep>
  <scstep>
   <time name="total">   31.08   31.07</time>
   <energy>
    <i name="e_fr_energy">   -386.74184078 </i>
    <i name="e_wo_entrp">   -386.74184078 </i>
    <i name="e_0_energy">   -386.74184078 </i>
   </energy>
  </scstep>
  <scstep>
   <time name="total">   39.11   39.23</time>
   <energy>
    <i name="e_fr_energy">   -448.06549073 </i>
    <i name="e_wo_entrp">   -448.06549073 </i>
    <i name="e_0_energy">   -448.06549073 </i>
   </energy>
  </scstep>
  <scstep>
   <time name="total">   44.33   44.35</time>
   <energy>
    <i name="e_fr_energy">   -470.41502636 </i>
    <i name="e_wo_entrp">   -470.41502636 </i>
    <i name="e_0_energy">   -470.41502636 </i>
   </energy>
  </scstep>
  <scstep>
   <time name="total">   47.32   47.32</time>
   <energy>
    <i name="e_fr_energy">   -477.71847731 </i>
    <i name="e_wo_entrp">   -477.71847731 </i>
    <i name="e_0_energy">   -477.71847731 </i>
   </energy>
  </scstep>
  <scstep>
   <time name="total">   47.66   47.66</time>
   <energy>
    <i name="e_fr_energy">   -479.70001910 </i>
    <i name="e_wo_entrp">   -479.70001910 </i>
    <i name="e_0_energy">   -479.70001910 </i>
   </energy>
  </scstep>
  <scstep>
   <time name="total">   47.75   47.75</time>
   <energy>
    <i name="e_fr_energy">   -481.26935095 </i>
    <i name="e_wo_entrp">   -481.26935095 </i>
    <i name="e_0_energy">   -481.26935095 </i>
   </energy>
  </scstep>
  <scstep>
   <time name="total">   47.57   47.57</time>
   <energy>
    <i name="e_fr_energy">   -481.84037378 </i>
    <i name="e_wo_entrp">   -481.84037378 </i>
    <i name="e_0_energy">   -481.84037378 </i>
   </energy>
  </scstep>
  <scstep>
   <time name="total">   47.65   47.64</time>
   <energy>
    <i name="e_fr_energy">   -482.14766101 </i>
    <i name="e_wo_entrp">   -482.14766101 </i>
    <i name="e_0_energy">   -482.14766101 </i>
   </energy>
  </scstep>
  <scstep>
   <time name="total">   47.12   47.12</time>
   <energy>
    <i name="e_fr_energy">   -482.31652073 </i>
    <i name="e_wo_entrp">   -482.31652073 </i>
    <i name="e_0_energy">   -482.31652073 </i>
   </energy>
  </scstep>
  <scstep>
   <time name="total">   46.46   46.46</time>
   <energy>
    <i name="e_fr_energy">   -482.42923254 </i>
    <i name="e_wo_entrp">   -482.42923254 </i>
    <i name="e_0_energy">   -482.42923254 </i>
   </energy>
  </scstep>
  <scstep>
   <time name="total">   45.54   45.54</time>
   <energy>
    <i name="e_fr_energy">   -482.50759559 </i>
    <i name="e_wo_entrp">   -482.50759559 </i>
    <i name="e_0_energy">   -482.50759559 </i>
   </energy>
  </scstep>
  <scstep>
   <time name="total">   44.80   44.80</time>
   <energy>
    <i name="e_fr_energy">   -482.56447937 </i>
    <i name="e_wo_entrp">   -482.56447937 </i>
    <i name="e_0_energy">   -482.56447937 </i>
   </energy>
  </scstep>
  <scstep>
   <time name="total">   43.77   43.76</time>
   <energy>
    <i name="e_fr_energy">   -482.59062100 </i>
    <i name="e_wo_entrp">   -482.59062100 </i>
    <i name="e_0_energy">   -482.59062100 </i>
   </energy>
  </scstep>
  <scstep>
   <time name="total">   43.03   43.03</time>
   <energy>
    <i name="e_fr_energy">   -482.61095723 </i>
    <i name="e_wo_entrp">   -482.61095723 </i>
    <i name="e_0_energy">   -482.61095723 </i>
   </energy>
  </scstep>
  <scstep>
   <time name="total">   42.10   42.10</time>
   <energy>
    <i name="e_fr_energy">   -482.63331906 </i>
    <i name="e_wo_entrp">   -482.63331906 </i>
    <i name="e_0_energy">   -482.63331906 </i>
   </energy>
  </scstep>
  <scstep>
   <time name="total">   41.18   41.17</time>
   <energy>
    <i name="e_fr_energy">   -482.64315374 </i>
    <i name="e_wo_entrp">   -482.64315374 </i>
    <i name="e_0_energy">   -482.64315374 </i>
   </energy>
  </scstep>
  <scstep>
   <time name="total">   40.41   40.41</time>
   <energy>
    <i name="e_fr_energy">   -482.65481025 </i>
    <i name="e_wo_entrp">   -482.65481025 </i>
    <i name="e_0_energy">   -482.65481025 </i>
   </energy>
  </scstep>
  <scstep>
   <time name="total">   39.68   39.68</time>
   <energy>
    <i name="e_fr_energy">   -482.66501555 </i>
    <i name="e_wo_entrp">   -482.66501555 </i>
    <i name="e_0_energy">   -482.66501555 </i>
   </energy>
  </scstep>
  <scstep>
   <time name="total">   39.34   39.34</time>
   <energy>
    <i name="e_fr_energy">   -482.67232563 </i>
    <i name="e_wo_entrp">   -482.67232563 </i>
    <i name="e_0_energy">   -482.67232563 </i>
   </energy>
  </scstep>
  <scstep>
   <time name="total">   38.90   38.89</time>
   <energy>
    <i name="e_fr_energy">   -482.68252354 </i>
    <i name="e_wo_entrp">   -482.68252354 </i>
    <i name="e_0_energy">   -482.68252354 </i>
   </energy>
  </scstep>
  <scstep>
   <time name="total">   31.94   31.93</time>
   <energy>
    <i name="e_fr_energy">    -71.33792426 </i>
    <i name="e_wo_entrp">    -71.33792426 </i>
    <i name="e_0_energy">    -71.33792426 </i>
   </energy>
  </scstep>
  <scstep>
   <time name="total">   32.93   32.93</time>
   <energy>
    <i name="e_fr_energy">   -220.19759481 </i>
    <i name="e_wo_entrp">   -220.19759481 </i>
    <i name="e_0_energy">   -220.19759481 </i>
   </energy>
  </scstep>
  <scstep>
   <time name="total">   38.76   38.75</time>
   <energy>
    <i name="e_fr_energy">   -253.61193421 </i>
    <i name="e_wo_entrp">   -253.61193421 </i>
    <i name="e_0_energy">   -253.61193421 </i>
   </energy>
  </scstep>
  <scstep>
   <time name="total">   46.43   46.43</time>
   <energy>
    <i name="e_fr_energy">   -264.98816739 </i>
    <i name="e_wo_entrp">   -264.98816739 </i>
    <i name="e_0_energy">   -264.98816739 </i>
   </energy>
  </scstep>
  <scstep>
   <time name="total">   47.82   47.81</time>
   <energy>
    <i name="e_fr_energy">   -268.83717947 </i>
    <i name="e_wo_entrp">   -268.83717947 </i>
    <i name="e_0_energy">   -268.83717947 </i>
   </energy>
  </scstep>
  <scstep>
   <time name="total">   48.46   48.46</time>
   <energy>
    <i name="e_fr_energy">   -270.57988913 </i>
    <i name="e_wo_entrp">   -270.57988913 </i>
    <i name="e_0_energy">   -270.57988913 </i>
   </energy>
  </scstep>
  <scstep>
   <time name="total">   48.61   48.61</time>
   <energy>
    <i name="e_fr_energy">   -271.35186387 </i>
    <i name="e_wo_entrp">   -271.35186387 </i>
    <i name="e_0_energy">   -271.35186387 </i>
   </energy>
  </scstep>
  <scstep>
   <time name="total">   48.34   48.34</time>
   <energy>
    <i name="e_fr_energy">   -271.73255961 </i>
    <i name="e_wo_entrp">   -271.73255961 </i>
    <i name="e_0_energy">   -271.73255961 </i>
   </energy>
  </scstep>
  <scstep>
   <time name="total">   48.17   48.16</time>
   <energy>
    <i name="e_fr_energy">   -271.90949864 </i>
    <i name="e_wo_entrp">   -271.90949864 </i>
    <i name="e_0_energy">   -271.90949864 </i>
   </energy>
  </scstep>
  <scstep>
   <time name="total">   47.61   47.61</time>
   <energy>
    <i name="e_fr_energy">   -272.05098222 </i>
    <i name="e_wo_entrp">   -272.05098222 </i>
    <i name="e_0_energy">   -272.05098222 </i>
   </energy>
  </scstep>
  <scstep>
   <time name="total">   46.61   46.61</time>
   <energy>
    <i name="e_fr_energy">   -272.12516669 </i>
    <i name="e_wo_entrp">   -272.12516669 </i>
    <i name="e_0_energy">   -272.12516669 </i>
   </energy>
  </scstep>
  <scstep>
   <time name="total">   45.80   46.72</time>
   <energy>
    <i name="e_fr_energy">   -272.16534124 </i>
    <i name="e_wo_entrp">   -272.16534124 </i>
    <i name="e_0_energy">   -272.16534124 </i>
   </energy>
  </scstep>
  <scstep>
   <time name="total">   44.41   44.48</time>
   <energy>
    <i name="e_fr_energy">   -272.20007917 </i>
    <i name="e_wo_entrp">   -272.20007917 </i>
    <i name="e_0_energy">   -272.20007917 </i>
   </energy>
  </scstep>
  <scstep>
   <time name="total">   43.21   43.21</time>
   <energy>
    <i name="e_fr_energy">   -272.23173178 </i>
    <i name="e_wo_entrp">   -272.23173178 </i>
    <i name="e_0_energy">   -272.23173178 </i>
   </energy>
  </scstep>
  <scstep>
   <time name="total">   42.10   42.21</time>
   <energy>
    <i name="e_fr_energy">   -272.25490528 </i>
    <i name="e_wo_entrp">   -272.25490528 </i>
    <i name="e_0_energy">   -272.25490528 </i>
   </energy>
  </scstep>
  <scstep>
   <time name="total">   41.44   42.40</time>
   <energy>
    <i name="e_fr_energy">   -272.27167636 </i>
    <i name="e_wo_entrp">   -272.27167636 </i>
    <i name="e_0_energy">   -272.27167636 </i>
   </energy>
  </scstep>
  <scstep>
   <time name="total">   40.52   41.47</time>
   <energy>
    <i name="e_fr_energy">   -272.29371870 </i>
    <i name="e_wo_entrp">   -272.29371870 </i>
    <i name="e_0_energy">   -272.29371870 </i>
   </energy>
  </scstep>
  <scstep>
   <time name="total">   39.80   39.80</time>
   <energy>
    <i name="e_fr_energy">   -272.32033165 </i>
    <i name="e_wo_entrp">   -272.32033165 </i>
    <i name="e_0_energy">   -272.32033165 </i>
   </energy>
  </scstep>
  <scstep>
   <time name="total">   38.84   40.50</time>
   <energy>
    <i name="e_fr_energy">   -272.33544082 </i>
    <i name="e_wo_entrp">   -272.33544082 </i>
    <i name="e_0_energy">   -272.33544082 </i>
   </energy>
  </scstep>
  <scstep>
   <time name="total">   38.73   38.73</time>
   <energy>
    <i name="e_fr_energy">   -272.34506966 </i>
    <i name="e_wo_entrp">   -272.34506966 </i>
    <i name="e_0_energy">   -272.34506966 </i>
   </energy>
  </scstep>
  <scstep>
   <time name="total">   37.87   37.96</time>
   <energy>
    <i name="e_fr_energy">   -272.35395387 </i>
    <i name="e_wo_entrp">   -272.35395387 </i>
    <i name="e_0_energy">   -272.35395387 </i>
   </energy>
  </scstep>
  <scstep>
   <time name="total">   37.50   37.86</time>
   <energy>
    <i name="e_fr_energy">   -272.35751763 </i>
    <i name="e_wo_entrp">   -272.35751763 </i>
    <i name="e_0_energy">   -272.35751763 </i>
   </energy>
  </scstep>
  <scstep>
   <time name="total">   37.03   37.03</time>
   <energy>
    <i name="e_fr_energy">   -272.36091566 </i>
    <i name="e_wo_entrp">   -272.36091566 </i>
    <i name="e_0_energy">   -272.36091566 </i>
   </energy>
  </scstep>
  <scstep>
   <time name="total">   32.11   32.11</time>
   <energy>
    <i name="e_fr_energy">    -75.12814718 </i>
    <i name="e_wo_entrp">    -75.12814718 </i>
    <i name="e_0_energy">    -75.12814718 </i>
   </energy>
  </scstep>
  <scstep>
   <time name="total">   32.02   32.02</time>
   <energy>
    <i name="e_fr_energy">   -308.63685259 </i>
    <i name="e_wo_entrp">   -308.63685259 </i>
    <i name="e_0_energy">   -308.63685259 </i>
   </energy>
  </scstep>
  <scstep>
   <time name="total">   38.31   38.31</time>
   <energy>
    <i name="e_fr_energy">   -358.50224471 </i>
    <i name="e_wo_entrp">   -358.50224471 </i>
    <i name="e_0_energy">   -358.50224471 </i>
   </energy>
  </scstep>
  <scstep>
   <time name="total">   44.51   44.51</time>
   <energy>
    <i name="e_fr_energy">   -373.76256649 </i>
    <i name="e_wo_entrp">   -373.76256649 </i>
    <i name="e_0_energy">   -373.76256649 </i>
   </energy>
  </scstep>
  <scstep>
   <time name="total">   47.28   47.28</time>
   <energy>
    <i name="e_fr_energy">   -379.13123996 </i>
    <i name="e_wo_entrp">   -379.13123996 </i>
    <i name="e_0_energy">   -379.13123996 </i>
   </energy>
  </scstep>
  <scstep>
   <time name="total">   47.79   47.79</time>
   <energy>
    <i name="e_fr_energy">   -381.36738806 </i>
    <i name="e_wo_entrp">   -381.36738806 </i>
    <i name="e_0_energy">   -381.36738806 </i>
   </energy>
  </scstep>
  <scstep>
   <time name="total">   47.76   47.76</time>
   <energy>
    <i name="e_fr_energy">   -382.26051273 </i>
    <i name="e_wo_entrp">   -382.26051273 </i>
    <i name="e_0_energy">   -382.26051273 </i>
   </energy>
  </scstep>
  <scstep>
   <time name="total">   47.64   47.64</time>
   <energy>
    <i name="e_fr_energy">   -382.57594214 </i>
    <i name="e_wo_entrp">   -382.57594214 </i>
    <i name="e_0_energy">   -382.57594214 </i>
   </energy>
  </scstep>
  <scstep>
   <time name="total">   47.38   47.38</time>
   <energy>
    <i name="e_fr_energy">   -382.76899215 </i>
    <i name="e_wo_entrp">   -382.76899215 </i>
    <i name="e_0_energy">   -382.76899215 </i>
   </energy>
  </scstep>
  <scstep>
   <time name="total">   47.21   47.20</time>
   <energy>
    <i name="e_fr_energy">   -382.89199729 </i>
    <i name="e_wo_entrp">   -382.89199729 </i>
    <i name="e_0_energy">   -382.89199729 </i>
   </energy>
  </scstep>
  <scstep>
   <time name="total">   46.54   46.54</time>
   <energy>
    <i name="e_fr_energy">   -382.94866105 </i>
    <i name="e_wo_entrp">   -382.94866105 </i>
    <i name="e_0_energy">   -382.94866105 </i>
   </energy>
  </scstep>
  <scstep>
   <time name="total">   45.76   45.76</time>
   <energy>
    <i name="e_fr_energy">   -382.97474005 </i>
    <i name="e_wo_entrp">   -382.97474005 </i>
    <i name="e_0_energy">   -382.97474005 </i>
   </energy>
  </scstep>
  <scstep>
   <time name="total">   44.76   44.76</time>
   <energy>
    <i name="e_fr_energy">   -383.00142853 </i>
    <i name="e_wo_entrp">   -383.00142853 </i>
    <i name="e_0_energy">   -383.00142853 </i>
   </energy>
  </scstep>
  <scstep>
   <time name="total">   43.72   43.71</time>
   <energy>
    <i name="e_fr_energy">   -383.00583413 </i>
    <i name="e_wo_entrp">   -383.00583413 </i>
    <i name="e_0_energy">   -383.00583413 </i>
   </energy>
  </scstep>
  <scstep>
   <time name="total">   42.12   42.12</time>
   <energy>
    <i name="e_fr_energy">   -383.00570078 </i>
    <i name="e_wo_entrp">   -383.00570078 </i>
    <i name="e_0_energy">   -383.00570078 </i>
   </energy>
  </scstep>
  <scstep>
   <time name="total">   41.27   41.27</time>
   <energy>
    <i name="e_fr_energy">   -383.00344288 </i>
    <i name="e_wo_entrp">   -383.00344288 </i>
    <i name="e_0_energy">   -383.00344288 </i>
   </energy>
  </scstep>
  <scstep>
   <time name="total">   40.15   40.15</time>
   <energy>
    <i name="e_fr_energy">   -383.00200514 </i>
    <i name="e_wo_entrp">   -383.00200514 </i>
    <i name="e_0_energy">   -383.00200514 </i>
   </energy>
  </scstep>
  <scstep>
[...]
       <r>     8.3100     9.2139    91.2203 </r>
       <r>     8.3200     7.9955    91.3003 </r>
       <r>     8.3300     8.3444    91.3837 </r>
       <r>     8.3400     9.2918    91.4767 </r>
       <r>     8.3500     7.6889    91.5535 </r>
       <r>     8.3600     6.4275    91.6178 </r>
       <r>     8.3700     7.5152    91.6930 </r>
       <r>     8.3800     8.2920    91.7759 </r>
       <r>     8.3900     7.7548    91.8534 </r>
       <r>     8.4000     9.5610    91.9491 </r>
       <r>     8.4100     9.4104    92.0432 </r>
       <r>     8.4200    10.0016    92.1432 </r>
       <r>     8.4300     8.0079    92.2232 </r>
       <r>     8.4400     4.7894    92.2711 </r>
       <r>     8.4500     5.4706    92.3259 </r>
       <r>     8.4600     8.1593    92.4074 </r>
       <r>     8.4700     7.3757    92.4812 </r>
       <r>     8.4800     6.2156    92.5434 </r>
       <r>     8.4900     6.1036    92.6044 </r>
       <r>     8.5000     8.1180    92.6856 </r>
       <r>     8.5100     6.3565    92.7491 </r>
       <r>     8.5200     4.6497    92.7956 </r>
       <r>     8.5300     5.6436    92.8521 </r>
       <r>     8.5400     7.5777    92.9278 </r>
       <r>     8.5500     8.3503    93.0114 </r>
       <r>     8.5600     7.8545    93.0899 </r>
       <r>     8.5700     7.0204    93.1601 </r>
       <r>     8.5800     7.1102    93.2312 </r>
       <r>     8.5900     8.1020    93.3122 </r>
       <r>     8.6000     8.9200    93.4014 </r>
       <r>     8.6100     9.2629    93.4940 </r>
       <r>     8.6200     8.8968    93.5830 </r>
       <r>     8.6300     9.6303    93.6793 </r>
       <r>     8.6400     8.8379    93.7677 </r>
       <r>     8.6500     9.2328    93.8600 </r>
       <r>     8.6600    10.9385    93.9694 </r>
       <r>     8.6700     8.7850    94.0573 </r>
       <r>     8.6800    10.7337    94.1646 </r>
       <r>     8.6900    15.5734    94.3203 </r>
       <r>     8.7000    13.8079    94.4584 </r>
       <r>     8.7100     9.9698    94.5581 </r>
       <r>     8.7200    10.2553    94.6607 </r>
       <r>     8.7300    11.6066    94.7767 </r>
       <r>     8.7400    10.7023    94.8838 </r>
       <r>     8.7500    10.8186    94.9919 </r>
       <r>     8.7600    10.9426    95.1014 </r>
       <r>     8.7700     8.5267    95.1866 </r>
       <r>     8.7800     5.5128    95.2418 </r>
       <r>     8.7900     7.4447    95.3162 </r>
       <r>     8.8000    10.8611    95.4248 </r>
       <r>     8.8100    12.5485    95.5503 </r>
       <r>     8.8200    11.4093    95.6644 </r>
       <r>     8.8300    10.6021    95.7704 </r>
       <r>     8.8400    12.0134    95.8906 </r>
       <r>     8.8500     9.4978    95.9855 </r>
       <r>     8.8600     8.1905    96.0674 </r>
       <r>     8.8700     6.6650    96.1341 </r>
       <r>     8.8800     4.9729    96.1838 </r>
       <r>     8.8900     6.0847    96.2447 </r>
       <r>     8.9000     6.1858    96.3065 </r>
       <r>     8.9100     6.7589    96.3741 </r>
       <r>     8.9200     9.4970    96.4691 </r>
       <r>     8.9300    12.5213    96.5943 </r>
       <r>     8.9400    18.3748    96.7780 </r>
       <r>     8.9500    15.5390    96.9334 </r>
       <r>     8.9600     8.8429    97.0219 </r>
       <r>     8.9700     8.5411    97.1073 </r>
       <r>     8.9800     7.8434    97.1857 </r>
       <r>     8.9900     8.2240    97.2679 </r>
       <r>     9.0000    11.2630    97.3806 </r>
       <r>     9.0100    12.7879    97.5084 </r>
       <r>     9.0200    11.9209    97.6277 </r>
       <r>     9.0300     8.7399    97.7151 </r>
       <r>     9.0400    10.0571    97.8156 </r>
       <r>     9.0500    10.9800    97.9254 </r>
       <r>     9.0600     6.0597    97.9860 </r>
       <r>     9.0700     4.4477    98.0305 </r>
       <r>     9.0800     8.8973    98.1195 </r>
       <r>     9.0900    12.4122    98.2436 </r>
       <r>     9.1000    10.5680    98.3493 </r>
       <r>     9.1100    10.7108    98.4564 </r>
       <r>     9.1200    15.3059    98.6094 </r>
       <r>     9.1300    14.1359    98.7508 </r>
       <r>     9.1400    11.1047    98.8619 </r>
       <r>     9.1500    11.5145    98.9770 </r>
       <r>     9.1600    10.6909    99.0839 </r>
       <r>     9.1700    13.3774    99.2177 </r>
       <r>     9.1800    16.1842    99.3795 </r>
       <r>     9.1900     9.9351    99.4789 </r>
       <r>     9.2000     8.3489    99.5624 </r>
       <r>     9.2100     7.9427    99.6418 </r>
       <r>     9.2200     7.8949    99.7207 </r>
       <r>     9.2300     9.3645    99.8144 </r>
       <r>     9.2400     9.2992    99.9074 </r>
       <r>     9.2500    13.1267   100.0386 </r>
       <r>     9.2600    13.6693   100.1753 </r>
       <r>     9.2700    12.0997   100.2963 </r>
       <r>     9.2800    11.3659   100.4100 </r>
       <r>     9.2900     9.8346   100.5083 </r>
       <r>     9.3000     6.4454   100.5728 </r>
       <r>     9.3100     7.5663   100.6485 </r>
       <r>     9.3200    13.0989   100.7794 </r>
       <r>     9.3300    13.8087   100.9175 </r>
       <r>     9.3400    12.6134   101.0437 </r>
       <r>     9.3500     9.7179   101.1408 </r>
       <r>     9.3600    10.3724   101.2446 </r>
       <r>     9.3700    12.3592   101.3682 </r>
       <r>     9.3800    10.0349   101.4685 </r>
       <r>     9.3900     8.5471   101.5540 </r>
       <r>     9.4000    10.3497   101.6575 </r>
       <r>     9.4100    13.6169   101.7936 </r>
       <r>     9.4200    13.9071   101.9327 </r>
       <r>     9.4300    17.1583   102.1043 </r>
       <r>     9.4400    18.6735   102.2910 </r>
       <r>     9.4500    15.0464   102.4415 </r>
       <r>     9.4600    10.9971   102.5515 </r>
       <r>     9.4700    14.5035   102.6965 </r>
       <r>     9.4800    17.9319   102.8758 </r>
       <r>     9.4900    14.1947   103.0178 </r>
       <r>     9.5000    11.8417   103.1362 </r>
       <r>     9.5100    12.7450   103.2636 </r>
       <r>     9.5200    12.7755   103.3914 </r>
       <r>     9.5300    10.1505   103.4929 </r>
       <r>     9.5400     9.9628   103.5925 </r>
       <r>     9.5500     9.4784   103.6873 </r>
       <r>     9.5600    14.7474   103.8348 </r>
       <r>     9.5700    18.7555   104.0223 </r>
       <r>     9.5800    14.7682   104.1700 </r>
       <r>     9.5900    16.7142   104.3372 </r>
       <r>     9.6000    20.4237   104.5414 </r>
       <r>     9.6100    20.8294   104.7497 </r>
       <r>     9.6200    20.7027   104.9567 </r>
       <r>     9.6300    14.6361   105.1031 </r>
       <r>     9.6400    12.8517   105.2316 </r>
       <r>     9.6500    11.7708   105.3493 </r>
       <r>     9.6600    10.0786   105.4501 </r>
       <r>     9.6700    12.6778   105.5769 </r>
       <r>     9.6800    18.3724   105.7606 </r>
       <r>     9.6900    22.4037   105.9846 </r>
       <r>     9.7000    21.2516   106.1971 </r>
       <r>     9.7100    18.3545   106.3807 </r>
       <r>     9.7200    16.2483   106.5432 </r>
       <r>     9.7300    16.2823   106.7060 </r>
       <r>     9.7400    21.1817   106.9178 </r>
       <r>     9.7500    26.8084   107.1859 </r>
       <r>     9.7600    27.3855   107.4598 </r>
       <r>     9.7700    25.5725   107.7155 </r>
       <r>     9.7800    21.1548   107.9270 </r>
       <r>     9.7900    21.4680   108.1417 </r>
       <r>     9.8000    23.6064   108.3778 </r>
       <r>     9.8100    27.2702   108.6505 </r>
       <r>     9.8200    28.0815   108.9313 </r>
       <r>     9.8300    25.6738   109.1880 </r>
       <r>     9.8400    26.7812   109.4558 </r>
       <r>     9.8500    28.9230   109.7451 </r>
       <r>     9.8600    26.6525   110.0116 </r>
       <r>     9.8700    27.1920   110.2835 </r>
       <r>     9.8800    29.8572   110.5821 </r>
       <r>     9.8900    32.7474   110.9096 </r>
       <r>     9.9000    38.9420   111.2990 </r>
       <r>     9.9100    37.5624   111.6746 </r>
       <r>     9.9200    34.3494   112.0181 </r>
       <r>     9.9300    38.5113   112.4032 </r>
       <r>     9.9400    44.1415   112.8446 </r>
       <r>     9.9500    43.9414   113.2840 </r>
       <r>     9.9600    49.6449   113.7805 </r>
       <r>     9.9700    63.3397   114.4139 </r>
       <r>     9.9800    73.0600   115.1445 </r>
       <r>     9.9900    70.8709   115.8532 </r>
       <r>    10.0000    74.8533   116.6017 </r>
       <r>    10.0100    77.7250   117.3790 </r>
       <r>    10.0200    62.5557   118.0045 </r>
       <r>    10.0300    52.4113   118.5286 </r>
       <r>    10.0400    50.9710   119.0384 </r>
       <r>    10.0500    48.5326   119.5237 </r>
       <r>    10.0600    45.8760   119.9824 </r>
       <r>    10.0700    47.1959   120.4544 </r>
       <r>    10.0800    50.8803   120.9632 </r>
       <r>    10.0900    43.3226   121.3964 </r>
       <r>    10.1000    40.0357   121.7968 </r>
       <r>    10.1100    50.6334   122.3031 </r>
       <r>    10.1200    58.2734   122.8859 </r>
       <r>    10.1300    58.0953   123.4668 </r>
       <r>    10.1400    56.6071   124.0329 </r>
       <r>    10.1500    59.1706   124.6246 </r>
       <r>    10.1600    62.2381   125.2470 </r>
       <r>    10.1700    55.3432   125.8004 </r>
       <r>    10.1800    49.4168   126.2946 </r>
       <r>    10.1900    43.4523   126.7291 </r>
       <r>    10.2000    37.5335   127.1044 </r>
       <r>    10.2100    31.3612   127.4180 </r>
       <r>    10.2200    28.0155   127.6982 </r>
       <r>    10.2300    19.3965   127.8922 </r>
       <r>    10.2400     8.4926   127.9771 </r>
       <r>    10.2500     2.1354   127.9984 </r>
       <r>    10.2600     0.1546   128.0000 </r>
       <r>    10.2700     0.0021   128.0000 </r>
       <r>    10.2800     0.0000   128.0000 </r>
       <r>    10.2900     0.0000   128.0000 </r>
       <r>    10.3000     0.0000   128.0000 </r>
       <r>    10.3100     0.0000   128.0000 </r>
       <r>    10.3200     0.0000   128.0000 </r>
       <r>    10.3300     0.0000   128.0000 </r>
       <r>    10.3400     0.0000   128.0000 </r>
       <r>    10.3500     0.0000   128.0000 </r>
       <r>    10.3600     0.0000   128.0000 </r>
       <r>    10.3700     0.0000   128.0000 </r>
       <r>    10.3800     0.0000   128.0000 </r>
       <r>    10.3900     0.0000   128.0000 </r>
       <r>    10.4000     0.0000   128.0000 </r>
       <r>    10.4100     0.0000   128.0000 </r>
       <r>    10.4200     0.0000   128.0000 </r>
       <r>    10.4300     0.0000   128.0000 </r>
       <r>    10.4400     0.0000   128.0000 </r>
       <r>    10.4500     0.0000   128.0000 </r>
       <r>    10.4600     0.0000   128.0000 </r>
       <r>    10.4700     0.0000   128.0000 </r>
       <r>    10.4800     0.0000   128.0000 </r>
       <r>    10.4900     0.0000   128.0000 </r>
       <r>    10.5000     0.0000   128.0000 </r>
       <r>    10.5100     0.0000   128.0000 </r>
       <r>    10.5200     0.0000   128.0000 </r>
       <r>    10.5300     0.0000   128.0000 </r>
       <r>    10.5400     0.0000   128.0000 </r>
       <r>    10.5500     0.0000   128.0000 </r>
       <r>    10.5600     0.0000   128.0000 </r>
       <r>    10.5700     0.0000   128.0000 </r>
       <r>    10.5800     0.0000   128.0000 </r>
       <r>    10.5900     0.0000   128.0000 </r>
       <r>    10.6000     0.0000   128.0000 </r>
       <r>    10.6100     0.0000   128.0000 </r>
       <r>    10.6200     0.0000   128.0000 </r>
       <r>    10.6300     0.0000   128.0000 </r>
       <r>    10.6400     0.0000   128.0000 </r>
       <r>    10.6500     0.0000   128.0000 </r>
       <r>    10.6600     0.0000   128.0000 </r>
       <r>    10.6700     0.0000   128.0000 </r>
       <r>    10.6800     0.0000   128.0000 </r>
       <r>    10.6900     0.0000   128.0000 </r>
       <r>    10.7000     0.0000   128.0000 </r>
       <r>    10.7100     0.0000   128.0000 </r>
       <r>    10.7200     0.0000   128.0000 </r>
       <r>    10.7300     0.0000   128.0000 </r>
       <r>    10.7400     0.0000   128.0000 </r>
       <r>    10.7500     0.0000   128.0000 </r>
       <r>    10.7600     0.0000   128.0000 </r>
       <r>    10.7700     0.0000   128.0000 </r>
       <r>    10.7800     0.0000   128.0000 </r>
       <r>    10.7900     0.0000   128.0000 </r>
       <r>    10.8000     0.0000   128.0000 </r>
       <r>    10.8100     0.0000   128.0000 </r>
       <r>    10.8200     0.0000   128.0000 </r>
       <r>    10.8300     0.0000   128.0000 </r>
       <r>    10.8400     0.0000   128.0000 </r>
       <r>    10.8500     0.0000   128.0000 </r>
       <r>    10.8600     0.0000   128.0000 </r>
       <r>    10.8700     0.0000   128.0000 </r>
       <r>    10.8800     0.0000   128.0000 </r>
       <r>    10.8900     0.0000   128.0000 </r>
       <r>    10.9000     0.0000   128.0000 </r>
       <r>    10.9100     0.0000   128.0000 </r>
       <r>    10.9200     0.0000   128.0000 </r>
       <r>    10.9300     0.0000   128.0000 </r>
       <r>    10.9400     0.0000   128.0000 </r>
       <r>    10.9500     0.0000   128.0000 </r>
       <r>    10.9600     0.0000   128.0000 </r>
       <r>    10.9700     0.0000   128.0000 </r>
       <r>    10.9800     0.0000   128.0000 </r>
       <r>    10.9900     0.0000   128.0000 </r>
       <r>    11.0000     0.0000   128.0000 </r>
       <r>    11.0100     0.0000   128.0000 </r>
       <r>    11.0200     0.0000   128.0000 </r>
       <r>    11.0300     0.0000   128.0000 </r>
       <r>    11.0400     0.0000   128.0000 </r>
       <r>    11.0500     0.0000   128.0000 </r>
       <r>    11.0600     0.0000   128.0000 </r>
       <r>    11.0700     0.0000   128.0000 </r>
       <r>    11.0800     0.0000   128.0000 </r>
       <r>    11.0900     0.0000   128.0000 </r>
       <r>    11.1000     0.0000   128.0000 </r>
       <r>    11.1100     0.0000   128.0000 </r>
       <r>    11.1200     0.0000   128.0000 </r>
       <r>    11.1300     0.0000   128.0000 </r>
       <r>    11.1400     0.0000   128.0000 </r>
       <r>    11.1500     0.0000   128.0000 </r>
       <r>    11.1600     0.0000   128.0000 </r>
       <r>    11.1700     0.0000   128.0000 </r>
       <r>    11.1800     0.0000   128.0000 </r>
       <r>    11.1900     0.0000   128.0000 </r>
       <r>    11.2000     0.0000   128.0000 </r>
       <r>    11.2100     0.0000   128.0000 </r>
       <r>    11.2200     0.0000   128.0000 </r>
       <r>    11.2300     0.0000   128.0000 </r>
       <r>    11.2400     0.0000   128.0000 </r>
       <r>    11.2500     0.0000   128.0000 </r>
       <r>    11.2600     0.0000   128.0000 </r>
       <r>    11.2700     0.0000   128.0000 </r>
       <r>    11.2800     0.0000   128.0000 </r>
       <r>    11.2900     0.0000   128.0000 </r>
       <r>    11.3000     0.0000   128.0000 </r>
       <r>    11.3100     0.0000   128.0000 </r>
       <r>    11.3200     0.0000   128.0000 </r>
       <r>    11.3300     0.0000   128.0000 </r>
       <r>    11.3400     0.0000   128.0000 </r>
       <r>    11.3500     0.0000   128.0000 </r>
       <r>    11.3600     0.0000   128.0000 </r>
       <r>    11.3700     0.0000   128.0000 </r>
       <r>    11.3800     0.0000   128.0000 </r>
       <r>    11.3900     0.0000   128.0000 </r>
       <r>    11.4000     0.0000   128.0000 </r>
       <r>    11.4100     0.0000   128.0000 </r>
       <r>    11.4200     0.0000   128.0000 </r>
       <r>    11.4300     0.0000   128.0000 </r>
       <r>    11.4400     0.0000   128.0000 </r>
       <r>    11.4500     0.0000   128.0000 </r>
       <r>    11.4600     0.0000   128.0000 </r>
       <r>    11.4700     0.0000   128.0000 </r>
       <r>    11.4800     0.0000   128.0000 </r>
       <r>    11.4900     0.0000   128.0000 </r>
       <r>    11.5000     0.0000   128.0000 </r>
       <r>    11.5100     0.0000   128.0000 </r>
       <r>    11.5200     0.0000   128.0000 </r>
       <r>    11.5300     0.0000   128.0000 </r>
       <r>    11.5400     0.0000   128.0000 </r>
       <r>    11.5500     0.0000   128.0000 </r>
       <r>    11.5600     0.0000   128.0000 </r>
       <r>    11.5700     0.0000   128.0000 </r>
       <r>    11.5800     0.0000   128.0000 </r>
       <r>    11.5900     0.0000   128.0000 </r>
       <r>    11.6000     0.0000   128.0000 </r>
       <r>    11.6100     0.0000   128.0000 </r>
       <r>    11.6200     0.0000   128.0000 </r>
       <r>    11.6300     0.0000   128.0000 </r>
       <r>    11.6400     0.0000   128.0000 </r>
       <r>    11.6500     0.0000   128.0000 </r>
       <r>    11.6600     0.0000   128.0000 </r>
       <r>    11.6700     0.0000   128.0000 </r>
       <r>    11.6800     0.0000   128.0000 </r>
       <r>    11.6900     0.0000   128.0000 </r>
       <r>    11.7000     0.0000   128.0000 </r>
       <r>    11.7100     0.0000   128.0000 </r>
       <r>    11.7200     0.0000   128.0000 </r>
       <r>    11.7300     0.0000   128.0000 </r>
       <r>    11.7400     0.0000   128.0000 </r>
       <r>    11.7500     0.0000   128.0000 </r>
       <r>    11.7600     0.0000   128.0000 </r>
       <r>    11.7700     0.0000   128.0000 </r>
       <r>    11.7800     0.0000   128.0000 </r>
       <r>    11.7900     0.0000   128.0000 </r>
       <r>    11.8000     0.0000   128.0000 </r>
       <r>    11.8100     0.0000   128.0000 </r>
       <r>    11.8200     0.0000   128.0000 </r>
       <r>    11.8300     0.0000   128.0000 </r>
       <r>    11.8400     0.0000   128.0000 </r>
       <r>    11.8500     0.0000   128.0000 </r>
       <r>    11.8600     0.0000   128.0000 </r>
       <r>    11.8700     0.0000   128.0000 </r>
       <r>    11.8800     0.0000   128.0000 </r>
       <r>    11.8900     0.0000   128.0000 </r>
       <r>    11.9000     0.0000   128.0000 </r>
       <r>    11.9100     0.0000   128.0000 </r>
       <r>    11.9200     0.0000   128.0000 </r>
       <r>    11.9300     0.0000   128.0000 </r>
       <r>    11.9400     0.0000   128.0000 </r>
       <r>    11.9500     0.0000   128.0000 </r>
       <r>    11.9600     0.0000   128.0000 </r>
       <r>    11.9700     0.0000   128.0000 </r>
       <r>    11.9800     0.0000   128.0000 </r>
       <r>    11.9900     0.0000   128.0000 </r>
       <r>    12.0000     0.0000   128.0000 </r>
      </set>
     </set>
    </array>
   </total>
  </dos>
 </calculation>
 <structure name="finalpos" >
  <crystal>
   <varray name="basis" >
    <v>       7.04806474       0.00000000       0.00000000 </v>
    <v>       0.00000000       9.94612108       0.00000000 </v>
    <v>       0.00000000       0.00000000       4.46451488 </v>
   </varray>
   <i name="volume">    312.96653466 </i>
   <varray name="rec_basis" >
    <v>       0.14188292      -0.00000000      -0.00000000 </v>
    <v>      -0.00000000       0.10054171      -0.00000000 </v>
    <v>      -0.00000000      -0.00000000       0.22398850 </v>
   </varray>
  </crystal>
  <varray name="positions" >
   <v>       0.00000000       0.70494217       0.00000000 </v>
   <v>       0.00000000       0.29505783       0.00000000 </v>
   <v>       0.50000000       0.20494217       0.00000000 </v>
   <v>       0.50000000       0.79505783       0.00000000 </v>
   <v>       0.00000000       0.50000000       0.50000000 </v>
   <v>       0.50000000       0.00000000       0.50000000 </v>
   <v>       0.18878067       0.86804371       0.50000000 </v>
   <v>       0.81121933       0.13195629       0.50000000 </v>
   <v>       0.18878067       0.13195629       0.50000000 </v>
   <v>       0.81121933       0.86804371       0.50000000 </v>
   <v>       0.68878067       0.36804371       0.50000000 </v>
   <v>       0.31121933       0.63195629       0.50000000 </v>
   <v>       0.68878067       0.63195629       0.50000000 </v>
   <v>       0.31121933       0.36804371       0.50000000 </v>
   <v>       0.17980564       0.00000000       0.00000000 </v>
   <v>       0.82019436       0.00000000       0.00000000 </v>
   <v>       0.67980564       0.50000000       0.00000000 </v>
   <v>       0.32019436       0.50000000       0.00000000 </v>
  </varray>
 </structure>
</modeling>
